 Entering Gaussian System, Link 0=g16
 Input=TS1M_Product1_ADMP_600K.gjf
 Output=TS1M_Product1_ADMP_600K.log
 Initial command:
 /apps/easybuild-2022/easybuild/software/Compiler/NVHPC/22.11-CUDA-11.7.0/Gaussian/g16c01-CUDA-11.7.0/g16/l1.exe "/tmp/Gau-95110.inp" -scrdir="/tmp/"
 Default is to use a total of   4 processors:
                                4 via shared-memory
                                1 via Linda
 Entering Link 1 = /apps/easybuild-2022/easybuild/software/Compiler/NVHPC/22.11-CUDA-11.7.0/Gaussian/g16c01-CUDA-11.7.0/g16/l1.exe PID=     95111.
  
 Copyright (c) 1988-2019, Gaussian, Inc.  All Rights Reserved.
  
 This is part of the Gaussian(R) 16 program.  It is based on
 the Gaussian(R) 09 system (copyright 2009, Gaussian, Inc.),
 the Gaussian(R) 03 system (copyright 2003, Gaussian, Inc.),
 the Gaussian(R) 98 system (copyright 1998, Gaussian, Inc.),
 the Gaussian(R) 94 system (copyright 1995, Gaussian, Inc.),
 the Gaussian 92(TM) system (copyright 1992, Gaussian, Inc.),
 the Gaussian 90(TM) system (copyright 1990, Gaussian, Inc.),
 the Gaussian 88(TM) system (copyright 1988, Gaussian, Inc.),
 the Gaussian 86(TM) system (copyright 1986, Carnegie Mellon
 University), and the Gaussian 82(TM) system (copyright 1983,
 Carnegie Mellon University). Gaussian is a federally registered
 trademark of Gaussian, Inc.
  
 This software contains proprietary and confidential information,
 including trade secrets, belonging to Gaussian, Inc.
  
 This software is provided under written license and may be
 used, copied, transmitted, or stored only in accord with that
 written license.
  
 The following legend is applicable only to US Government
 contracts under FAR:
  
                    RESTRICTED RIGHTS LEGEND
  
 Use, reproduction and disclosure by the US Government is
 subject to restrictions as set forth in subparagraphs (a)
 and (c) of the Commercial Computer Software - Restricted
 Rights clause in FAR 52.227-19.
  
 Gaussian, Inc.
 340 Quinnipiac St., Bldg. 40, Wallingford CT 06492
  
  
 ---------------------------------------------------------------
 Warning -- This program may not be used in any manner that
 competes with the business of Gaussian, Inc. or will provide
 assistance to any competitor of Gaussian, Inc.  The licensee
 of this program is prohibited from giving any competitor of
 Gaussian, Inc. access to this program.  By using this program,
 the user acknowledges that Gaussian, Inc. is engaged in the
 business of creating and licensing software in the field of
 computational chemistry and represents and warrants to the
 licensee that it is not a competitor of Gaussian, Inc. and that
 it will not use this program in any manner prohibited above.
 ---------------------------------------------------------------
  

 Cite this work as:
 Gaussian 16, Revision C.01,
 M. J. Frisch, G. W. Trucks, H. B. Schlegel, G. E. Scuseria, 
 M. A. Robb, J. R. Cheeseman, G. Scalmani, V. Barone, 
 G. A. Petersson, H. Nakatsuji, X. Li, M. Caricato, A. V. Marenich, 
 J. Bloino, B. G. Janesko, R. Gomperts, B. Mennucci, H. P. Hratchian, 
 J. V. Ortiz, A. F. Izmaylov, J. L. Sonnenberg, D. Williams-Young, 
 F. Ding, F. Lipparini, F. Egidi, J. Goings, B. Peng, A. Petrone, 
 T. Henderson, D. Ranasinghe, V. G. Zakrzewski, J. Gao, N. Rega, 
 G. Zheng, W. Liang, M. Hada, M. Ehara, K. Toyota, R. Fukuda, 
 J. Hasegawa, M. Ishida, T. Nakajima, Y. Honda, O. Kitao, H. Nakai, 
 T. Vreven, K. Throssell, J. A. Montgomery, Jr., J. E. Peralta, 
 F. Ogliaro, M. J. Bearpark, J. J. Heyd, E. N. Brothers, K. N. Kudin, 
 V. N. Staroverov, T. A. Keith, R. Kobayashi, J. Normand, 
 K. Raghavachari, A. P. Rendell, J. C. Burant, S. S. Iyengar, 
 J. Tomasi, M. Cossi, J. M. Millam, M. Klene, C. Adamo, R. Cammi, 
 J. W. Ochterski, R. L. Martin, K. Morokuma, O. Farkas, 
 J. B. Foresman, and D. J. Fox, Gaussian, Inc., Wallingford CT, 2019.
 
 ******************************************
 Gaussian 16:  ES64L-G16RevC.01  3-Jul-2019
                19-Mar-2025 
 ******************************************
 %chk=TS1M_Product1_ADMP TRJTRY RSTF=10_600K.chk
 %mem=8GB
 %nprocshared=8
 Will use up to    8 processors via shared memory.
 -----------------------------------
 # B3LYP/6-31G(d) ADMP int=ultrafine
 -----------------------------------
 1/26=4,29=20000,38=1,172=1/1,21;
 2/12=2,17=6,18=5,29=2,40=1/2;
 3/5=1,6=6,7=1,11=2,25=1,30=1,65=-1,71=1,74=-5,75=-5,89=400,90=600/1,2,3;
 4//1;
 5/5=2,14=200,38=5/2;
 6/7=2,8=2,9=2,10=2,28=1/1;
 7/7=1,127=-100/1,2,3,16;
 1/26=4/21(2);
 2/29=1/2;
 99/12=1/99;
 2/29=1/2;
 3/5=1,6=6,7=1,11=2,25=1,30=1,65=-1,71=1,74=-5,75=-5,89=400,90=600/1,2,3;
 5/5=2,14=100/2;
 7/7=1,127=-100/1,2,3,16;
 1/26=4/21(-4);
 2/29=1/2;
 6/7=2,8=2,9=2,10=2,19=2,28=1/1;
 99/9=1,12=1/99;
 ------------------------------------------------------------------
 TS1M_Product1 ADMP thermal decomposition simulation targeting 600K
 ------------------------------------------------------------------
 Symbolic Z-matrix:
 Charge =  0 Multiplicity = 1
 F                    -1.57331  -1.13011  -0.32199 
 C                    -0.81297  -0.01458  -0.02773 
 F                    -1.61386   1.07928  -0.29449 
 O                    -0.05956  -0.01581   1.18231 
 S                     0.94326   0.01859  -0.10251 
 O                     1.53438   1.33027  -0.20162 
 O                     1.58206  -1.26765  -0.23396 
 
 TRJ-TRJ-TRJ-TRJ-TRJ-TRJ-TRJ-TRJ-TRJ-TRJ-TRJ-TRJ-TRJ-TRJ-TRJ-TRJ-TRJ-TRJ
 ------------------------------------------------------------------------
 INPUT DATA FOR L121
 ------------------------------------------------------------------------

 General parameters:
 Maximum Steps                =      50
 Random Number Generator Seed =    398465
 Time Step                    =  0.10000 femtosec
 Ficticious electronic mass   =  0.10000 amu
 MW individual basis funct.   = True 
 Initial nuclear kin. energy  =  0.10000 hartree
 Initial electr. kin. energy  =  0.00000 hartree
   Initial electr. KE scheme  =  0
 Multitime step - NDtrC       =       1
 Multitime step - NDtrP       =       1
 No Thermostats chosen to control nuclear temperature

 Integration parameters:

 Follow Rxn Path (DVV)        = False
 Constraint Scheme            =      10
 Projection of angular mom.   = True 
 Rotate density with nuclei   = True 
 ------------------------------------------------------------------------
 TRJ-TRJ-TRJ-TRJ-TRJ-TRJ-TRJ-TRJ-TRJ-TRJ-TRJ-TRJ-TRJ-TRJ-TRJ-TRJ-TRJ-TRJ
 ---------------------------------------------------------------------------------------------------
                            Z-MATRIX (ANGSTROMS AND DEGREES)
   CD    Cent   Atom    N1       Length/X        N2       Alpha/Y        N3        Beta/Z          J
 ---------------------------------------------------------------------------------------------------
      1      1  F        0  -1.573306         -1.130107         -0.321991
      2      2  C        0  -0.812969         -0.014577         -0.027731
      3      3  F        0  -1.613860          1.079279         -0.294491
      4      4  O        0  -0.059558         -0.015809          1.182305
      5      5  S        0   0.943257          0.018590         -0.102514
      6      6  O        0   1.534375          1.330270         -0.201623
      7      7  O        0   1.582060         -1.267646         -0.233957
 ---------------------------------------------------------------------------------------------------
                         Z-Matrix orientation:                         
 ---------------------------------------------------------------------
 Center     Atomic      Atomic             Coordinates (Angstroms)
 Number     Number       Type             X           Y           Z
 ---------------------------------------------------------------------
      1          9           0       -1.573306   -1.130107   -0.321991
      2          6           0       -0.812969   -0.014577   -0.027731
      3          9           0       -1.613860    1.079279   -0.294491
      4          8           0       -0.059558   -0.015809    1.182305
      5         16           0        0.943257    0.018590   -0.102514
      6          8           0        1.534375    1.330270   -0.201623
      7          8           0        1.582060   -1.267646   -0.233957
 ---------------------------------------------------------------------
                    Distance matrix (angstroms):
                    1          2          3          4          5
     1  F    0.000000
     2  C    1.381705   0.000000
     3  F    2.209929   1.381705   0.000000
     4  O    2.407488   1.425418   2.407488   0.000000
     5  S    2.775025   1.758130   2.775025   1.630209   0.000000
     6  O    3.965555   2.710881   3.159589   2.503559   1.442133
     7  O    3.159589   2.710881   3.965555   2.503558   1.442134
                    6          7
     6  O    0.000000
     7  O    2.598555   0.000000
 Symmetry turned off by external request.
 Stoichiometry    CF2O3S
 Framework group  C1[X(CF2O3S)]
 Deg. of freedom    15
 Full point group                 C1      NOp   1
 Rotational constants (GHZ):           3.9466994           2.1249758           1.6272802
 Standard basis: 6-31G(d) (6D, 7F)
   109 basis functions,   220 primitive gaussians,   109 cartesian basis functions
    32 alpha electrons       32 beta electrons
       nuclear repulsion energy       431.6926093240 Hartrees.
 NAtoms=    7 NActive=    7 NUniq=    7 SFac= 1.00D+00 NAtFMM=   60 NAOKFM=F Big=F
 Integral buffers will be    131072 words long.
 Raffenetti 2 integral format.
 Two-electron integral symmetry is turned off.
 One-electron integrals computed using PRISM.
 NBasis=   109 RedAO= T EigKep=  4.03D-03  NBF=   109
 NBsUse=   109 1.00D-06 EigRej= -1.00D+00 NBFU=   109
 ExpMin= 1.17D-01 ExpMax= 2.19D+04 ExpMxC= 3.30D+03 IAcc=3 IRadAn=         5 AccDes= 0.00D+00
 Harris functional with IExCor=  402 and IRadAn=       5 diagonalized for initial guess.
 HarFok:  IExCor=  402 AccDes= 0.00D+00 IRadAn=         5 IDoV= 1 UseB2=F ITyADJ=14
 ICtDFT=  3500011 ScaDFX=  1.000000  1.000000  1.000000  1.000000
 FoFCou: FMM=F IPFlag=           0 FMFlag=      100000 FMFlg1=           0
         NFxFlg=           0 DoJE=T BraDBF=F KetDBF=T FulRan=T
         wScrn=  0.000000 ICntrl=       500 IOpCl=  0 I1Cent=   200000004 NGrid=           0
         NMat0=    1 NMatS0=      1 NMatT0=    0 NMatD0=    1 NMtDS0=    0 NMtDT0=    0
 Symmetry not used in FoFCou.
 Keep R1 ints in memory in canonical form, NReq=25451713.
 Requested convergence on RMS density matrix=1.00D-08 within 128 cycles.
 Requested convergence on MAX density matrix=1.00D-06.
 Requested convergence on             energy=1.00D-06.
 No special actions if energy rises.
 Integral accuracy reduced to 1.0D-05 until final iterations.
 Initial convergence to 1.0D-05 achieved.  Increase integral accuracy.
 SCF Done:  E(RB3LYP) =  -861.489451779     A.U. after   14 cycles
            NFock= 14  Conv=0.46D-08     -V/T= 2.0060

 **********************************************************************

            Population analysis using the SCF Density.

 **********************************************************************

 Alpha  occ. eigenvalues --  -89.17726 -24.77736 -24.77736 -19.26425 -19.22010
 Alpha  occ. eigenvalues --  -19.22009 -10.48419  -8.20520  -6.17115  -6.16836
 Alpha  occ. eigenvalues --   -6.16748  -1.31266  -1.24955  -1.22388  -1.11868
 Alpha  occ. eigenvalues --   -1.08161  -0.75053  -0.69963  -0.61517  -0.61307
 Alpha  occ. eigenvalues --   -0.56778  -0.53704  -0.51796  -0.49760  -0.47474
 Alpha  occ. eigenvalues --   -0.46616  -0.45732  -0.42801  -0.40822  -0.38615
 Alpha  occ. eigenvalues --   -0.35668  -0.34264
 Alpha virt. eigenvalues --   -0.07145  -0.01095   0.03535   0.05853   0.07741
 Alpha virt. eigenvalues --    0.14682   0.20269   0.25469   0.30427   0.31413
 Alpha virt. eigenvalues --    0.36265   0.46186   0.47522   0.51027   0.61960
 Alpha virt. eigenvalues --    0.68860   0.72410   0.77345   0.79377   0.82171
 Alpha virt. eigenvalues --    0.84378   0.86227   0.94796   0.95514   0.98378
 Alpha virt. eigenvalues --    1.04775   1.05161   1.06743   1.10006   1.16093
 Alpha virt. eigenvalues --    1.17032   1.20021   1.28975   1.30117   1.31790
 Alpha virt. eigenvalues --    1.34818   1.35823   1.42987   1.46104   1.52187
 Alpha virt. eigenvalues --    1.61944   1.64338   1.68082   1.68758   1.72773
 Alpha virt. eigenvalues --    1.75058   1.75567   1.79312   1.79951   1.81479
 Alpha virt. eigenvalues --    1.81540   1.85796   1.93022   1.95541   1.97345
 Alpha virt. eigenvalues --    1.99084   2.03550   2.12621   2.15841   2.23569
 Alpha virt. eigenvalues --    2.26652   2.30013   2.45487   2.60538   2.60753
 Alpha virt. eigenvalues --    2.73371   2.76669   2.80659   2.92840   3.00379
 Alpha virt. eigenvalues --    3.63035   3.77181   3.88918   3.95429   4.20452
 Alpha virt. eigenvalues --    4.40842   4.55876
          Condensed to atoms (all electrons):
               1          2          3          4          5          6
     1  F    9.046005   0.241649  -0.035944  -0.022106  -0.007722   0.000109
     2  C    0.241649   4.729001   0.241649   0.029348   0.210374  -0.037724
     3  F   -0.035944   0.241649   9.046005  -0.022106  -0.007723   0.000501
     4  O   -0.022106   0.029348  -0.022106   8.481375   0.020471  -0.028689
     5  S   -0.007722   0.210374  -0.007723   0.020471  13.862858   0.418863
     6  O    0.000109  -0.037724   0.000501  -0.028689   0.418863   8.090842
     7  O    0.000501  -0.037725   0.000109  -0.028689   0.418863  -0.027474
               7
     1  F    0.000501
     2  C   -0.037725
     3  F    0.000109
     4  O   -0.028689
     5  S    0.418863
     6  O   -0.027474
     7  O    8.090841
 Mulliken charges:
               1
     1  F   -0.222492
     2  C    0.623429
     3  F   -0.222492
     4  O   -0.429605
     5  S    1.084017
     6  O   -0.416429
     7  O   -0.416428
 Sum of Mulliken charges =  -0.00000
 Mulliken charges with hydrogens summed into heavy atoms:
               1
     1  F   -0.222492
     2  C    0.623429
     3  F   -0.222492
     4  O   -0.429605
     5  S    1.084017
     6  O   -0.416429
     7  O   -0.416428
 Electronic spatial extent (au):  <R**2>=            692.2328
 Charge=             -0.0000 electrons
 Dipole moment (field-independent basis, Debye):
    X=             -1.2082    Y=             -0.0168    Z=             -0.4298  Tot=              1.2825
 Quadrupole moment (field-independent basis, Debye-Ang):
   XX=            -45.8446   YY=            -47.5232   ZZ=            -42.1198
   XY=              0.0244   XZ=              0.5203   YZ=             -0.0577
 Traceless Quadrupole moment (field-independent basis, Debye-Ang):
   XX=             -0.6821   YY=             -2.3607   ZZ=              3.0427
   XY=              0.0244   XZ=              0.5203   YZ=             -0.0577
 Octapole moment (field-independent basis, Debye-Ang**2):
  XXX=            -30.0193  YYY=             -0.8398  ZZZ=             -1.9841  XYY=            -14.2006
  XXY=             -0.0780  XXZ=              3.8963  XZZ=             -7.1012  YZZ=             -0.0671
  YYZ=              1.5434  XYZ=             -0.0453
 Hexadecapole moment (field-independent basis, Debye-Ang**3):
 XXXX=           -425.5720 YYYY=           -213.8049 ZZZZ=            -86.4766 XXXY=             -1.5030
 XXXZ=              3.6044 YYYX=             -2.5099 YYYZ=             -0.6866 ZZZX=              1.7606
 ZZZY=             -0.7470 XXYY=           -115.3691 XXZZ=            -80.4692 YYZZ=            -49.7023
 XXYZ=             -0.4471 YYXZ=              2.1373 ZZXY=             -0.5334
 N-N= 4.316926093240D+02 E-N=-2.902333795812D+03  KE= 8.563837284831D+02
 Calling FoFJK, ICntrl=      2127 FMM=F ISym2X=0 I1Cent= 0 IOpClX= 0 NMat=1 NMatS=1 NMatT=0.
 -------------------------------------------------------------------
 Center     Atomic                   Forces (Hartrees/Bohr)
 Number     Number              X              Y              Z
 -------------------------------------------------------------------
      1        9           0.030063481    0.031513778    0.015342273
      2        6          -0.049598419   -0.000644425   -0.021381938
      3        9           0.031207399   -0.030763148    0.014566990
      4        8          -0.037958405   -0.000953241    0.020627325
      5       16          -0.003263792    0.000109538   -0.013747761
      6        8           0.014673285    0.005907912   -0.007634015
      7        8           0.014876451   -0.005170414   -0.007772875
 -------------------------------------------------------------------
 Cartesian Forces:  Max     0.049598419 RMS     0.021675353
 TRJ-TRJ-TRJ-TRJ-TRJ-TRJ-TRJ-TRJ-TRJ-TRJ-TRJ-TRJ-TRJ-TRJ-TRJ-TRJ-TRJ-TRJ

 ADMP step      0
 Frobenius norm of [F,P] =     1.113550D-12
 Current gradient on entry to l121
 I=    1 X=  -3.006348097306D-02 Y=  -3.151377788582D-02 Z=  -1.534227311953D-02
 I=    2 X=   4.959841860343D-02 Y=   6.444252433836D-04 Z=   2.138193750736D-02
 I=    3 X=  -3.120739938379D-02 Y=   3.076314757564D-02 Z=  -1.456698955999D-02
 I=    4 X=   3.795840544508D-02 Y=   9.532410237760D-04 Z=  -2.062732548025D-02
 I=    5 X=   3.263791863617D-03 Y=  -1.095383074184D-04 Z=   1.374776100034D-02
 I=    6 X=  -1.467328472229D-02 Y=  -5.907911735843D-03 Z=   7.634014983593D-03
 I=    7 X=  -1.487645083307D-02 Y=   5.170414086276D-03 Z=   7.772874668559D-03

 Summary information for step      0
 Time (fs)     0.000000
 EKinC      =      0.1000000; EKinPA =      0.0000000; EKinPB =      0.0000000
 EKin       =      0.1000000; EPot   =   -861.4894518; ETot   =   -861.3894518
 ETot-EKinP =   -861.3894518
 Integrand for the Velocity-Velocity Auto-Correlation  Function =   1.875165883249D-01
 Angular momentum
   JX = -0.2271910144D-14  JY = -0.1816896408D-13  JZ =  0.4665949562D-14
 Jtot =  0.1889560575D-13 H-BAR;  J (Quantum Number) =  0.0000000000D+00
 Total energy  -8.613894518D+02 A.U.
 Total angular momentum   1.889561D-14 h-bar
 Tr(PA)-NA =  7.105D-14
 Tr(PA**2-PA) =  0.000D+00
 Tr[(PA**2-PA)**2] =  2.750D-16
 Cartesian coordinates:
 I=    1 X=  -3.100293045180D+00 Y=  -2.138538662065D+00 Z=  -5.593428881521D-01
 I=    2 X=  -1.663464352806D+00 Y=  -3.049247832905D-02 Z=  -3.272078737545D-03
 I=    3 X=  -3.176928998435D+00 Y=   2.036595781383D+00 Z=  -5.073754197265D-01
 I=    4 X=  -2.397239035715D-01 Y=  -3.282062091451D-02 Z=   2.283364562127D+00
 I=    5 X=   1.655321800034D+00 Y=   3.218406804440D-02 Z=  -1.445914675109D-01
 I=    6 X=   2.772372927335D+00 Y=   2.510900031114D+00 Z=  -3.318803339904D-01
 I=    7 X=   2.862484517585D+00 Y=  -2.398449703512D+00 Z=  -3.929827385021D-01
 MW Cartesian velocity:
 I=    1 X=   1.192601048832D+14 Y=   4.645118110579D+13 Z=   9.193998937929D+13
 I=    2 X=   9.253761421040D+13 Y=  -4.006233574720D+13 Z=  -7.646844995983D+13
 I=    3 X=  -1.383228469567D+14 Y=   3.605391367278D+13 Z=   9.160679098456D+12
 I=    4 X=  -1.107623999017D+14 Y=  -4.653759638434D+13 Z=  -7.923380783481D+12
 I=    5 X=   2.883461765859D+13 Y=  -1.663895769235D+14 Z=  -4.879185611377D+13
 I=    6 X=   1.330872319120D+14 Y=   8.849056148977D+12 Z=   1.304671754610D+13
 I=    7 X=  -1.224689126758D+14 Y=   2.177157774448D+14 Z=   1.990897918421D+13
 TRJ-TRJ-TRJ-TRJ-TRJ-TRJ-TRJ-TRJ-TRJ-TRJ-TRJ-TRJ-TRJ-TRJ-TRJ-TRJ-TRJ-TRJ
                          Input orientation:                          
 ---------------------------------------------------------------------
 Center     Atomic      Atomic             Coordinates (Angstroms)
 Number     Number       Type             X           Y           Z
 ---------------------------------------------------------------------
      1          9           0       -1.639153   -1.131098   -0.294873
      2          6           0       -0.878864   -0.016748   -0.002904
      3          9           0       -1.682834    1.078154   -0.268378
      4          8           0       -0.128328   -0.017984    1.208203
      5         16           0        0.876228    0.015474   -0.076972
      6          8           0        1.468840    1.328829   -0.175452
      7          8           0        1.513143   -1.266325   -0.207695
 ---------------------------------------------------------------------
                    Distance matrix (angstroms):
                    1          2          3          4          5
     1  F    0.000000
     2  C    1.380239   0.000000
     3  F    2.209842   1.384071   0.000000
     4  O    2.404340   1.424811   2.407966   0.000000
     5  S    2.772949   1.756950   2.777539   1.631541   0.000000
     6  O    3.965491   2.711469   3.162992   2.505863   1.444226
     7  O    3.156399   2.706489   3.964156   2.501510   1.437275
                    6          7
     6  O    0.000000
     7  O    2.595732   0.000000
 Symmetry turned off by external request.
 Stoichiometry    CF2O3S
 Framework group  C1[X(CF2O3S)]
 Deg. of freedom    15
 Full point group                 C1      NOp   1
 Rotational constants (GHZ):           3.9508724           2.1250124           1.6278600
 Standard basis: 6-31G(d) (6D, 7F)
   109 basis functions,   220 primitive gaussians,   109 cartesian basis functions
    32 alpha electrons       32 beta electrons
       nuclear repulsion energy       431.8057949778 Hartrees.
 NAtoms=    7 NActive=    7 NUniq=    7 SFac= 1.00D+00 NAtFMM=   60 NAOKFM=F Big=F
 Integral buffers will be    131072 words long.
 Raffenetti 2 integral format.
 Two-electron integral symmetry is turned off.
 One-electron integrals computed using PRISM.
 NBasis=   109 RedAO= T EigKep=  4.02D-03  NBF=   109
 NBsUse=   109 1.00D-06 EigRej= -1.00D+00 NBFU=   109
 Keep R1 ints in memory in canonical form, NReq=25451713.
 Requested convergence on RMS density matrix=1.00D-08 within 128 cycles.
 Requested convergence on MAX density matrix=1.00D-06.
 Requested convergence on             energy=1.00D-06.
 No special actions if energy rises.
 SCF Done:  E(RB3LYP) =  -861.488988198     A.U. after    1 cycles
            NFock=  1  Conv=0.20D+01     -V/T= 2.0060
 Calling FoFJK, ICntrl=      2127 FMM=F ISym2X=0 I1Cent= 0 IOpClX= 0 NMat=1 NMatS=1 NMatT=0.
 -------------------------------------------------------------------
 Center     Atomic                   Forces (Hartrees/Bohr)
 Number     Number              X              Y              Z
 -------------------------------------------------------------------
      1        9           0.025941769    0.015229682   -0.000144465
      2        6          -0.111260970    0.017238557    0.007053370
      3        9           0.063434629   -0.039930100    0.004267174
      4        8          -0.002946206   -0.000926989    0.002788442
      5       16          -0.016523484    0.056808604    0.005754299
      6        8           0.007501895   -0.008145025   -0.008817601
      7        8           0.033852368   -0.040274730   -0.010901219
 -------------------------------------------------------------------
 Cartesian Forces:  Max     0.111260970 RMS     0.035122471
 TRJ-TRJ-TRJ-TRJ-TRJ-TRJ-TRJ-TRJ-TRJ-TRJ-TRJ-TRJ-TRJ-TRJ-TRJ-TRJ-TRJ-TRJ

 ADMP step      1
 Frobenius norm of [F,P] =     5.543428D-02
 Current gradient on entry to l121
 I=    1 X=  -2.594176912750D-02 Y=  -1.522968182499D-02 Z=   1.444646017985D-04
 I=    2 X=   1.112609703716D-01 Y=  -1.723855739596D-02 Z=  -7.053369533301D-03
 I=    3 X=  -6.343462872399D-02 Y=   3.993009951167D-02 Z=  -4.267173891937D-03
 I=    4 X=   2.946206226866D-03 Y=   9.269889048945D-04 Z=  -2.788441827626D-03
 I=    5 X=   1.652348384305D-02 Y=  -5.680860434877D-02 Z=  -5.754298997030D-03
 I=    6 X=  -7.501894661846D-03 Y=   8.145025305296D-03 Z=   8.817600981179D-03
 I=    7 X=  -3.385236792824D-02 Y=   4.027472984795D-02 Z=   1.090121866684D-02
 DVelV2: Constraint failed to achieve ||WP+PW-W|| = 0
         ICType= 10 MaxIt=  30 Ademp= 3.68D-10 Conv= 1.00D-12

 Summary information for step      1
 Time (fs)     0.100000
 EKinC      =      0.0995377; EKinPA =      0.0000146; EKinPB =      0.0000146
 EKin       =      0.0995669; EPot   =   -861.4889882; ETot   =   -861.3894213
 ETot-EKinP =   -861.3894505
 Adiabaticity Index =    2.3408D-26
 Total Fictitiious Kinetic Energy =      0.0002922
 Integrand for the Velocity-Velocity Auto-Correlation  Function =   1.870789208862D-01
 Angular momentum
   JX = -0.1635474442D-14  JY = -0.1125685809D-13  JZ =  0.1027974259D-13
 Jtot =  0.1533182110D-13 H-BAR;  J (Quantum Number) =  0.0000000000D+00
 Total energy  -8.613894213D+02  Delta-E   3.050205D-05 A.U.
 Total angular momentum   1.533182D-14  Delta-A  -3.563785D-15 h-bar
 Tr(PA)-NA = -1.421D-14
 Tr(PA**2-PA) = -4.974D-14
 Tr[(PA**2-PA)**2] =  2.178D-16
 Cartesian coordinates:
 I=    1 X=  -3.097549497627D+00 Y=  -2.137465177872D+00 Z=  -5.572297655170D-01
 I=    2 X=  -1.660812398086D+00 Y=  -3.164923000001D-02 Z=  -5.487885642995D-03
 I=    3 X=  -3.180094774964D+00 Y=   2.037415358859D+00 Z=  -5.071616558871D-01
 I=    4 X=  -2.425045286988D-01 Y=  -3.398452509191D-02 Z=   2.283172491748D+00
 I=    5 X=   1.655831272895D+00 Y=   2.924141971228D-02 Z=  -1.454563862931D-01
 I=    6 X=   2.775704937657D+00 Y=   2.511123024074D+00 Z=  -3.315563519206D-01
 I=    7 X=   2.859426668048D+00 Y=  -2.393007459435D+00 Z=  -3.924872132273D-01
 MW Cartesian velocity:
 I=    1 X=   1.198658696052D+14 Y=   4.695191587092D+13 Z=   9.209377842094D+13
 I=    2 X=   9.036085934277D+13 Y=  -3.983998764750D+13 Z=  -7.666483289827D+13
 I=    3 X=  -1.373068115528D+14 Y=   3.529134124844D+13 Z=   9.365236565443D+12
 I=    4 X=  -1.112448217483D+14 Y=  -4.656665133675D+13 Z=  -7.649160322320D+12
 I=    5 X=   2.867071993257D+13 Y=  -1.659155424640D+14 Z=  -4.885636813941D+13
 I=    6 X=   1.333442487655D+14 Y=   8.827955174137D+12 Z=   1.286548616974D+13
 I=    7 X=  -1.218938833356D+14 Y=   2.171885081272D+14 Z=   1.968675348839D+13
 DVelV1: Constraint failed to achieve idempotency:
         ICType= 10 MaxIt=  30 Ademp= 3.78D-11 Conv= 1.00D-12
 TRJ-TRJ-TRJ-TRJ-TRJ-TRJ-TRJ-TRJ-TRJ-TRJ-TRJ-TRJ-TRJ-TRJ-TRJ-TRJ-TRJ-TRJ
                          Input orientation:                          
 ---------------------------------------------------------------------
 Center     Atomic      Atomic             Coordinates (Angstroms)
 Number     Number       Type             X           Y           Z
 ---------------------------------------------------------------------
      1          9           0       -1.637694   -1.130526   -0.293755
      2          6           0       -0.877507   -0.017353   -0.004074
      3          9           0       -1.684492    1.078577   -0.268264
      4          8           0       -0.129800   -0.018600    1.208102
      5         16           0        0.876495    0.013926   -0.077429
      6          8           0        1.470605    1.328945   -0.175283
      7          8           0        1.511536   -1.263457   -0.207437
 ---------------------------------------------------------------------
                    Distance matrix (angstroms):
                    1          2          3          4          5
     1  F    0.000000
     2  C    1.378751   0.000000
     3  F    2.209746   1.386393   0.000000
     4  O    2.401187   1.424232   2.408427   0.000000
     5  S    2.770869   1.755814   2.780028   1.632874   0.000000
     6  O    3.965420   2.712095   3.166381   2.508173   1.446312
     7  O    3.153216   2.702158   3.962754   2.499481   1.432441
                    6          7
     6  O    0.000000
     7  O    2.592925   0.000000
 Symmetry turned off by external request.
 Stoichiometry    CF2O3S
 Framework group  C1[X(CF2O3S)]
 Deg. of freedom    15
 Full point group                 C1      NOp   1
 Rotational constants (GHZ):           3.9550419           2.1250440           1.6284359
 Standard basis: 6-31G(d) (6D, 7F)
   109 basis functions,   220 primitive gaussians,   109 cartesian basis functions
    32 alpha electrons       32 beta electrons
       nuclear repulsion energy       431.9201552037 Hartrees.
 NAtoms=    7 NActive=    7 NUniq=    7 SFac= 1.00D+00 NAtFMM=   60 NAOKFM=F Big=F
 Integral buffers will be    131072 words long.
 Raffenetti 2 integral format.
 Two-electron integral symmetry is turned off.
 One-electron integrals computed using PRISM.
 NBasis=   109 RedAO= T EigKep=  4.01D-03  NBF=   109
 NBsUse=   109 1.00D-06 EigRej= -1.00D+00 NBFU=   109
 Keep R1 ints in memory in canonical form, NReq=25451713.
 Requested convergence on RMS density matrix=1.00D-08 within 128 cycles.
 Requested convergence on MAX density matrix=1.00D-06.
 Requested convergence on             energy=1.00D-06.
 No special actions if energy rises.
 SCF Done:  E(RB3LYP) =  -861.487990377     A.U. after    1 cycles
            NFock=  1  Conv=0.20D+01     -V/T= 2.0059
 Calling FoFJK, ICntrl=      2127 FMM=F ISym2X=0 I1Cent= 0 IOpClX= 0 NMat=1 NMatS=1 NMatT=0.
 -------------------------------------------------------------------
 Center     Atomic                   Forces (Hartrees/Bohr)
 Number     Number              X              Y              Z
 -------------------------------------------------------------------
      1        9           0.022210405    0.002772227   -0.011438373
      2        6          -0.153232352    0.031672649    0.027067615
      3        9           0.085429987   -0.046966339   -0.002667246
      4        8           0.022156283   -0.000916118   -0.010220059
      5       16          -0.027530509    0.102322492    0.020559960
      6        8           0.001498340   -0.019488795   -0.009800977
      7        8           0.049467846   -0.069396115   -0.013500920
 -------------------------------------------------------------------
 Cartesian Forces:  Max     0.153232352 RMS     0.051422168
 TRJ-TRJ-TRJ-TRJ-TRJ-TRJ-TRJ-TRJ-TRJ-TRJ-TRJ-TRJ-TRJ-TRJ-TRJ-TRJ-TRJ-TRJ

 ADMP step      2
 Frobenius norm of [F,P] =     9.163682D-02
 Current gradient on entry to l121
 I=    1 X=  -2.221040477331D-02 Y=  -2.772226682314D-03 Z=   1.143837259669D-02
 I=    2 X=   1.532323522872D-01 Y=  -3.167264859905D-02 Z=  -2.706761481957D-02
 I=    3 X=  -8.542998696154D-02 Y=   4.696633890205D-02 Z=   2.667245947814D-03
 I=    4 X=  -2.215628297568D-02 Y=   9.161184531946D-04 Z=   1.022005865819D-02
 I=    5 X=   2.753050877968D-02 Y=  -1.023224919348D-01 Z=  -2.055995976815D-02
 I=    6 X=  -1.498340250659D-03 Y=   1.948879511837D-02 Z=   9.800977219423D-03
 I=    7 X=  -4.946784610561D-02 Y=   6.939611474247D-02 Z=   1.350092016562D-02
 DVelV2: Constraint failed to achieve ||WP+PW-W|| = 0
         ICType= 10 MaxIt=  30 Ademp= 5.92D-10 Conv= 1.00D-12

 Summary information for step      2
 Time (fs)     0.200000
 EKinC      =      0.0982317; EKinPA =      0.0001965; EKinPB =      0.0001965
 EKin       =      0.0986247; EPot   =   -861.4879904; ETot   =   -861.3893657
 ETot-EKinP =   -861.3897587
 Adiabaticity Index =    4.3869D-04
 Integrand for the Velocity-Velocity Auto-Correlation  Function =   1.858309196910D-01
 Angular momentum
   JX = -0.7940939384D-14  JY =  0.2461657114D-14  JZ =  0.6378706345D-13
 Jtot =  0.6432657101D-13 H-BAR;  J (Quantum Number) =  0.0000000000D+00
 Total energy  -8.613893657D+02  Delta-E   5.555859D-05 A.U.
 Total angular momentum   6.432657D-14  Delta-A   4.899475D-14 h-bar
 Tr(PA)-NA =  3.618D-09
 Tr(PA**2-PA) = -2.333D-09
 Tr[(PA**2-PA)**2] =  2.793D-11
 Cartesian coordinates:
 I=    1 X=  -3.094792990776D+00 Y=  -2.136384269889D+00 Z=  -5.551171582320D-01
 I=    2 X=  -1.658247366160D+00 Y=  -3.279264108833D-02 Z=  -7.698324928664D-03
 I=    3 X=  -3.183229331767D+00 Y=   2.038215127219D+00 Z=  -5.069456951453D-01
 I=    4 X=  -2.452870288072D-01 Y=  -3.514932358236D-02 Z=   2.282982043317D+00
 I=    5 X=   1.656335905689D+00 Y=   2.631550631441D-02 Z=  -1.463195552360D-01
 I=    6 X=   2.779041199562D+00 Y=   2.511341499035D+00 Z=  -3.312369574300D-01
 I=    7 X=   2.856388854633D+00 Y=  -2.387588551941D+00 Z=  -3.919982443619D-01
 MW Cartesian velocity:
 I=    1 X=   1.203924382850D+14 Y=   4.714109559665D+13 Z=   9.194226030002D+13
 I=    2 X=   8.678188000675D+13 Y=  -3.918342228710D+13 Z=  -7.621027833379D+13
 I=    3 X=  -1.357099623091D+14 Y=   3.435167581809D+13 Z=   9.387070097617D+12
 I=    4 X=  -1.110282702385D+14 Y=  -4.660723537038D+13 Z=  -7.736997994241D+12
 I=    5 X=   2.830594778218D+13 Y=  -1.645908836117D+14 Z=  -4.863309869522D+13
 I=    6 X=   1.334428770502D+14 Y=   8.516863480407D+12 Z=   1.267951610537D+13
 I=    7 X=  -1.209075725014D+14 Y=   2.159165791576D+14 Z=   1.939251685165D+13
 DVelV1: Constraint failed to achieve idempotency:
         ICType= 10 MaxIt=  30 Ademp= 6.25D-11 Conv= 1.00D-12
 TRJ-TRJ-TRJ-TRJ-TRJ-TRJ-TRJ-TRJ-TRJ-TRJ-TRJ-TRJ-TRJ-TRJ-TRJ-TRJ-TRJ-TRJ
                          Input orientation:                          
 ---------------------------------------------------------------------
 Center     Atomic      Atomic             Coordinates (Angstroms)
 Number     Number       Type             X           Y           Z
 ---------------------------------------------------------------------
      1          9           0       -1.636229   -1.129953   -0.292641
      2          6           0       -0.876213   -0.017945   -0.005232
      3          9           0       -1.686129    1.078988   -0.268150
      4          8           0       -0.131266   -0.019217    1.207998
      5         16           0        0.876758    0.012393   -0.077882
      6          8           0        1.472371    1.329054   -0.175117
      7          8           0        1.509944   -1.260611   -0.207182
 ---------------------------------------------------------------------
                    Distance matrix (angstroms):
                    1          2          3          4          5
     1  F    0.000000
     2  C    1.377240   0.000000
     3  F    2.209640   1.388651   0.000000
     4  O    2.398034   1.423684   2.408873   0.000000
     5  S    2.768787   1.754738   2.782484   1.634197   0.000000
     6  O    3.965341   2.712769   3.169749   2.510477   1.448381
     7  O    3.150044   2.697915   3.961354   2.497471   1.427649
                    6          7
     6  O    0.000000
     7  O    2.590137   0.000000
 Symmetry turned off by external request.
 Stoichiometry    CF2O3S
 Framework group  C1[X(CF2O3S)]
 Deg. of freedom    15
 Full point group                 C1      NOp   1
 Rotational constants (GHZ):           3.9592029           2.1250712           1.6290063
 Standard basis: 6-31G(d) (6D, 7F)
   109 basis functions,   220 primitive gaussians,   109 cartesian basis functions
    32 alpha electrons       32 beta electrons
       nuclear repulsion energy       432.0355341635 Hartrees.
 NAtoms=    7 NActive=    7 NUniq=    7 SFac= 1.00D+00 NAtFMM=   60 NAOKFM=F Big=F
 Integral buffers will be    131072 words long.
 Raffenetti 2 integral format.
 Two-electron integral symmetry is turned off.
 One-electron integrals computed using PRISM.
 NBasis=   109 RedAO= T EigKep=  3.99D-03  NBF=   109
 NBsUse=   109 1.00D-06 EigRej= -1.00D+00 NBFU=   109
 Keep R1 ints in memory in canonical form, NReq=25451713.
 Requested convergence on RMS density matrix=1.00D-08 within 128 cycles.
 Requested convergence on MAX density matrix=1.00D-06.
 Requested convergence on             energy=1.00D-06.
 No special actions if energy rises.
 SCF Done:  E(RB3LYP) =  -861.487257247     A.U. after    1 cycles
            NFock=  1  Conv=0.20D+01     -V/T= 2.0059
 Calling FoFJK, ICntrl=      2127 FMM=F ISym2X=0 I1Cent= 0 IOpClX= 0 NMat=1 NMatS=1 NMatT=0.
 -------------------------------------------------------------------
 Center     Atomic                   Forces (Hartrees/Bohr)
 Number     Number              X              Y              Z
 -------------------------------------------------------------------
      1        9           0.019451805   -0.002953620   -0.015571051
      2        6          -0.164010464    0.040130020    0.032920256
      3        9           0.091339537   -0.050762298   -0.004020515
      4        8           0.030846140   -0.000939050   -0.015186429
      5       16          -0.033972311    0.128259265    0.027404445
      6        8          -0.002543681   -0.026392415   -0.010421667
      7        8           0.058888974   -0.087341902   -0.015125038
 -------------------------------------------------------------------
 Cartesian Forces:  Max     0.164010464 RMS     0.058892362
 TRJ-TRJ-TRJ-TRJ-TRJ-TRJ-TRJ-TRJ-TRJ-TRJ-TRJ-TRJ-TRJ-TRJ-TRJ-TRJ-TRJ-TRJ

 ADMP step      3
 Frobenius norm of [F,P] =     9.888629D-02
 Current gradient on entry to l121
 I=    1 X=  -1.945180485136D-02 Y=   2.953619757477D-03 Z=   1.557105077965D-02
 I=    2 X=   1.640104640258D-01 Y=  -4.013001964881D-02 Z=  -3.292025550016D-02
 I=    3 X=  -9.133953698822D-02 Y=   5.076229754592D-02 Z=   4.020514941451D-03
 I=    4 X=  -3.084613952642D-02 Y=   9.390499842363D-04 Z=   1.518642946132D-02
 I=    5 X=   3.397231056659D-02 Y=  -1.282592647404D-01 Z=  -2.740444451878D-02
 I=    6 X=   2.543680548307D-03 Y=   2.639241490101D-02 Z=   1.042166687404D-02
 I=    7 X=  -5.888897377467D-02 Y=   8.734190220056D-02 Z=   1.512503796259D-02
 DVelV2: Constraint failed to achieve ||WP+PW-W|| = 0
         ICType= 10 MaxIt=  30 Ademp= 6.20D-10 Conv= 1.00D-12

 Summary information for step      3
 Time (fs)     0.300000
 EKinC      =      0.0964177; EKinPA =      0.0007470; EKinPB =      0.0007470
 EKin       =      0.0979117; EPot   =   -861.4872572; ETot   =   -861.3893455
 ETot-EKinP =   -861.3908395
 Adiabaticity Index =    1.9887D-03
 Integrand for the Velocity-Velocity Auto-Correlation  Function =   1.840704048731D-01
 Angular momentum
   JX =  0.3245045166D-14  JY = -0.7175868607D-14  JZ =  0.4140070909D-13
 Jtot =  0.4214311476D-13 H-BAR;  J (Quantum Number) =  0.0000000000D+00
 Total energy  -8.613893455D+02  Delta-E   2.021002D-05 A.U.
 Total angular momentum   4.214311D-14  Delta-A  -2.218346D-14 h-bar
 Tr(PA)-NA =  5.984D-09
 Tr(PA**2-PA) = -3.858D-09
 Tr[(PA**2-PA)**2] =  4.619D-11
 Cartesian coordinates:
 I=    1 X=  -3.092025281579D+00 Y=  -2.135302105170D+00 Z=  -5.530109880172D-01
 I=    2 X=  -1.655802043908D+00 Y=  -3.391148594053D-02 Z=  -9.887888114098D-03
 I=    3 X=  -3.186321836748D+00 Y=   2.038991588077D+00 Z=  -5.067309294726D-01
 I=    4 X=  -2.480568246378D-01 Y=  -3.631525728400D-02 Z=   2.282785580356D+00
 I=    5 X=   1.656832476275D+00 Y=   2.341971219576D-02 Z=  -1.471765768043D-01
 I=    6 X=   2.782378142083D+00 Y=   2.511548934938D+00 Z=  -3.309222753415D-01
 I=    7 X=   2.853380328477D+00 Y=  -2.382209914422D+00 Z=  -3.915174332575D-01
 MW Cartesian velocity:
 I=    1 X=   1.208504721667D+14 Y=   4.713624810596D+13 Z=   9.161309289155D+13
 I=    2 X=   8.248921019460D+13 Y=  -3.821691346898D+13 Z=  -7.540960511672D+13
 I=    3 X=  -1.338119602566D+14 Y=   3.329691179769D+13 Z=   9.319285250797D+12
 I=    4 X=  -1.104204466426D+14 Y=  -4.665465180252D+13 Z=  -8.035912098922D+12
 I=    5 X=   2.779681925562D+13 Y=  -1.626733748282D+14 Z=  -4.822756089635D+13
 I=    6 X=   1.334244770427D+14 Y=   7.993140949938D+12 Z=   1.248856716962D+13
 I=    7 X=  -1.196267582970D+14 Y=   2.140943695954D+14 Z=   1.904812774263D+13
 DVelV1: Constraint failed to achieve idempotency:
         ICType= 10 MaxIt=  30 Ademp= 6.76D-11 Conv= 1.00D-12
 TRJ-TRJ-TRJ-TRJ-TRJ-TRJ-TRJ-TRJ-TRJ-TRJ-TRJ-TRJ-TRJ-TRJ-TRJ-TRJ-TRJ-TRJ
                          Input orientation:                          
 ---------------------------------------------------------------------
 Center     Atomic      Atomic             Coordinates (Angstroms)
 Number     Number       Type             X           Y           Z
 ---------------------------------------------------------------------
      1          9           0       -1.634760   -1.129381   -0.291531
      2          6           0       -0.874987   -0.018521   -0.006378
      3          9           0       -1.687742    1.079385   -0.268038
      4          8           0       -0.132722   -0.019835    1.207889
      5         16           0        0.877015    0.010881   -0.078332
      6          8           0        1.474136    1.329156   -0.174953
      7          8           0        1.508370   -1.257792   -0.206932
 ---------------------------------------------------------------------
                    Distance matrix (angstroms):
                    1          2          3          4          5
     1  F    0.000000
     2  C    1.375710   0.000000
     3  F    2.209527   1.390840   0.000000
     4  O    2.394884   1.423166   2.409301   0.000000
     5  S    2.766707   1.753725   2.784900   1.635506   0.000000
     6  O    3.965253   2.713490   3.173093   2.512772   1.450427
     7  O    3.146889   2.693771   3.959957   2.495485   1.422911
                    6          7
     6  O    0.000000
     7  O    2.587372   0.000000
 Symmetry turned off by external request.
 Stoichiometry    CF2O3S
 Framework group  C1[X(CF2O3S)]
 Deg. of freedom    15
 Full point group                 C1      NOp   1
 Rotational constants (GHZ):           3.9633525           2.1250939           1.6295699
 Standard basis: 6-31G(d) (6D, 7F)
   109 basis functions,   220 primitive gaussians,   109 cartesian basis functions
    32 alpha electrons       32 beta electrons
       nuclear repulsion energy       432.1517818131 Hartrees.
 NAtoms=    7 NActive=    7 NUniq=    7 SFac= 1.00D+00 NAtFMM=   60 NAOKFM=F Big=F
 Integral buffers will be    131072 words long.
 Raffenetti 2 integral format.
 Two-electron integral symmetry is turned off.
 One-electron integrals computed using PRISM.
 NBasis=   109 RedAO= T EigKep=  3.98D-03  NBF=   109
 NBsUse=   109 1.00D-06 EigRej= -1.00D+00 NBFU=   109
 Keep R1 ints in memory in canonical form, NReq=25451713.
 Requested convergence on RMS density matrix=1.00D-08 within 128 cycles.
 Requested convergence on MAX density matrix=1.00D-06.
 Requested convergence on             energy=1.00D-06.
 No special actions if energy rises.
 SCF Done:  E(RB3LYP) =  -861.487072325     A.U. after    1 cycles
            NFock=  1  Conv=0.20D+01     -V/T= 2.0059
 Calling FoFJK, ICntrl=      2127 FMM=F ISym2X=0 I1Cent= 0 IOpClX= 0 NMat=1 NMatS=1 NMatT=0.
 -------------------------------------------------------------------
 Center     Atomic                   Forces (Hartrees/Bohr)
 Number     Number              X              Y              Z
 -------------------------------------------------------------------
      1        9           0.018056589   -0.001093060   -0.011992129
      2        6          -0.143349848    0.041268358    0.024019722
      3        9           0.081097758   -0.050958596    0.000251583
      4        8           0.022218746   -0.000932331   -0.011539432
      5       16          -0.034754272    0.132137928    0.025448315
      6        8          -0.004326205   -0.028337253   -0.010563718
      7        8           0.061057231   -0.092085047   -0.015624341
 -------------------------------------------------------------------
 Cartesian Forces:  Max     0.143349848 RMS     0.055977298
 TRJ-TRJ-TRJ-TRJ-TRJ-TRJ-TRJ-TRJ-TRJ-TRJ-TRJ-TRJ-TRJ-TRJ-TRJ-TRJ-TRJ-TRJ

 ADMP step      4
 Frobenius norm of [F,P] =     8.313051D-02
 Current gradient on entry to l121
 I=    1 X=  -1.805658908517D-02 Y=   1.093059751501D-03 Z=   1.199212850211D-02
 I=    2 X=   1.433498478309D-01 Y=  -4.126835788621D-02 Z=  -2.401972159906D-02
 I=    3 X=  -8.109775764726D-02 Y=   5.095859571550D-02 Z=  -2.515825733180D-04
 I=    4 X=  -2.221874641857D-02 Y=   9.323308172041D-04 Z=   1.153943167109D-02
 I=    5 X=   3.475427192562D-02 Y=  -1.321379279826D-01 Z=  -2.544831469828D-02
 I=    6 X=   4.326204676374D-03 Y=   2.833725270620D-02 Z=   1.056371800722D-02
 I=    7 X=  -6.105723128184D-02 Y=   9.208504687840D-02 Z=   1.562434069022D-02
 DVelV2: Constraint failed to achieve ||WP+PW-W|| = 0
         ICType= 10 MaxIt=  30 Ademp= 4.45D-10 Conv= 1.00D-12

 Summary information for step      4
 Time (fs)     0.400000
 EKinC      =      0.0945126; EKinPA =      0.0015953; EKinPB =      0.0015953
 EKin       =      0.0977032; EPot   =   -861.4870723; ETot   =   -861.3893691
 ETot-EKinP =   -861.3925597
 Adiabaticity Index =    3.6938D-03
 Integrand for the Velocity-Velocity Auto-Correlation  Function =   1.821875046217D-01
 Angular momentum
   JX = -0.9707143283D-14  JY = -0.4115227419D-15  JZ =  0.7123197802D-13
 Jtot =  0.7189153409D-13 H-BAR;  J (Quantum Number) =  0.0000000000D+00
 Total energy  -8.613893691D+02  Delta-E  -2.357682D-05 A.U.
 Total angular momentum   7.189153D-14  Delta-A   2.974842D-14 h-bar
 Tr(PA)-NA =  6.476D-09
 Tr(PA**2-PA) = -4.175D-09
 Tr[(PA**2-PA)**2] =  4.998D-11
 Cartesian coordinates:
 I=    1 X=  -3.089247757809D+00 Y=  -2.134221419614D+00 Z=  -5.509134846035D-01
 I=    2 X=  -1.653484849389D+00 Y=  -3.499909561622D-02 Z=  -1.205210051003D-02
 I=    3 X=  -3.189369303585D+00 Y=   2.039742958511D+00 Z=  -5.065180790436D-01
 I=    4 X=  -2.508089287356D-01 Y=  -3.748242697291D-02 Z=   2.282580183844D+00
 I=    5 X=   1.657319100797D+00 Y=   2.056162257435D-02 Z=  -1.480254015600D-01
 I=    6 X=   2.785713483842D+00 Y=   2.511741219610D+00 Z=  -3.306124298153D-01
 I=    7 X=   2.850406565953D+00 Y=  -2.376882131889D+00 Z=  -3.910456865846D-01
 MW Cartesian velocity:
 I=    1 X=   1.212604618225D+14 Y=   4.709578149523D+13 Z=   9.127336247502D+13
 I=    2 X=   7.833032113516D+13 Y=  -3.711672719942D+13 Z=  -7.465282433441D+13
 I=    3 X=  -1.319557945725D+14 Y=   3.220534453558D+13 Z=   9.279232465896D+12
 I=    4 X=  -1.098152954849D+14 Y=  -4.670265284898D+13 Z=  -8.350516519865D+12
 I=    5 X=   2.722805382420D+13 Y=  -1.605113202401D+14 Z=  -4.777962796681D+13
 I=    6 X=   1.333437360576D+14 Y=   7.359600467421D+12 Z=   1.229377366105D+13
 I=    7 X=  -1.182145341559D+14 Y=   2.119999618032D+14 Z=   1.868264067227D+13
 DVelV1: Constraint failed to achieve idempotency:
         ICType= 10 MaxIt=  30 Ademp= 5.01D-11 Conv= 1.00D-12
 TRJ-TRJ-TRJ-TRJ-TRJ-TRJ-TRJ-TRJ-TRJ-TRJ-TRJ-TRJ-TRJ-TRJ-TRJ-TRJ-TRJ-TRJ
                          Input orientation:                          
 ---------------------------------------------------------------------
 Center     Atomic      Atomic             Coordinates (Angstroms)
 Number     Number       Type             X           Y           Z
 ---------------------------------------------------------------------
      1          9           0       -1.633285   -1.128810   -0.290425
      2          6           0       -0.873820   -0.019079   -0.007513
      3          9           0       -1.689333    1.079770   -0.267925
      4          8           0       -0.134172   -0.020453    1.207777
      5         16           0        0.877268    0.009389   -0.078777
      6          8           0        1.475900    1.329249   -0.174791
      7          8           0        1.506816   -1.255001   -0.206688
 ---------------------------------------------------------------------
                    Distance matrix (angstroms):
                    1          2          3          4          5
     1  F    0.000000
     2  C    1.374165   0.000000
     3  F    2.209405   1.392963   0.000000
     4  O    2.391736   1.422677   2.409712   0.000000
     5  S    2.764627   1.752768   2.787280   1.636802   0.000000
     6  O    3.965155   2.714250   3.176415   2.515059   1.452450
     7  O    3.143750   2.689721   3.958569   2.493524   1.418229
                    6          7
     6  O    0.000000
     7  O    2.584632   0.000000
 Symmetry turned off by external request.
 Stoichiometry    CF2O3S
 Framework group  C1[X(CF2O3S)]
 Deg. of freedom    15
 Full point group                 C1      NOp   1
 Rotational constants (GHZ):           3.9674897           2.1251120           1.6301268
 Standard basis: 6-31G(d) (6D, 7F)
   109 basis functions,   220 primitive gaussians,   109 cartesian basis functions
    32 alpha electrons       32 beta electrons
       nuclear repulsion energy       432.2687831303 Hartrees.
 NAtoms=    7 NActive=    7 NUniq=    7 SFac= 1.00D+00 NAtFMM=   60 NAOKFM=F Big=F
 Integral buffers will be    131072 words long.
 Raffenetti 2 integral format.
 Two-electron integral symmetry is turned off.
 One-electron integrals computed using PRISM.
 NBasis=   109 RedAO= T EigKep=  3.97D-03  NBF=   109
 NBsUse=   109 1.00D-06 EigRej= -1.00D+00 NBFU=   109
 Keep R1 ints in memory in canonical form, NReq=25451713.
 Requested convergence on RMS density matrix=1.00D-08 within 128 cycles.
 Requested convergence on MAX density matrix=1.00D-06.
 Requested convergence on             energy=1.00D-06.
 No special actions if energy rises.
 SCF Done:  E(RB3LYP) =  -861.487074859     A.U. after    1 cycles
            NFock=  1  Conv=0.20D+01     -V/T= 2.0059
 Calling FoFJK, ICntrl=      2127 FMM=F ISym2X=0 I1Cent= 0 IOpClX= 0 NMat=1 NMatS=1 NMatT=0.
 -------------------------------------------------------------------
 Center     Atomic                   Forces (Hartrees/Bohr)
 Number     Number              X              Y              Z
 -------------------------------------------------------------------
      1        9           0.018134275    0.006974349   -0.002628392
      2        6          -0.101659961    0.035333640    0.004850587
      3        9           0.060054954   -0.047991188    0.008109436
      4        8           0.000921455   -0.000766605   -0.001352286
      5       16          -0.030301733    0.117726643    0.016383766
      6        8          -0.004065242   -0.026067875   -0.010182090
      7        8           0.056916252   -0.085208963   -0.015181021
 -------------------------------------------------------------------
 Cartesian Forces:  Max     0.117726643 RMS     0.046057074
 TRJ-TRJ-TRJ-TRJ-TRJ-TRJ-TRJ-TRJ-TRJ-TRJ-TRJ-TRJ-TRJ-TRJ-TRJ-TRJ-TRJ-TRJ

 ADMP step      5
 Frobenius norm of [F,P] =     6.680286D-02
 Current gradient on entry to l121
 I=    1 X=  -1.813427533586D-02 Y=  -6.974348861718D-03 Z=   2.628391708548D-03
 I=    2 X=   1.016599608704D-01 Y=  -3.533363959715D-02 Z=  -4.850586781519D-03
 I=    3 X=  -6.005495351797D-02 Y=   4.799118820673D-02 Z=  -8.109436322783D-03
 I=    4 X=  -9.214551299568D-04 Y=   7.666046429102D-04 Z=   1.352286289684D-03
 I=    5 X=   3.030173304827D-02 Y=  -1.177266426316D-01 Z=  -1.638376627139D-02
 I=    6 X=   4.065242001250D-03 Y=   2.606787485399D-02 Z=   1.018209031675D-02
 I=    7 X=  -5.691625193601D-02 Y=   8.520896338684D-02 Z=   1.518102106066D-02
 DVelV2: Constraint failed to achieve ||WP+PW-W|| = 0
         ICType= 10 MaxIt=  30 Ademp= 9.63D-11 Conv= 1.00D-12

 Summary information for step      5
 Time (fs)     0.500000
 EKinC      =      0.0928772; EKinPA =      0.0024011; EKinPB =      0.0024011
 EKin       =      0.0976794; EPot   =   -861.4870749; ETot   =   -861.3893955
 ETot-EKinP =   -861.3941976
 Adiabaticity Index =    4.1124D-03
 Integrand for the Velocity-Velocity Auto-Correlation  Function =   1.805418745374D-01
 Angular momentum
   JX = -0.9548368900D-14  JY = -0.2250761469D-14  JZ =  0.3229104043D-13
 Jtot =  0.3374831207D-13 H-BAR;  J (Quantum Number) =  0.0000000000D+00
 Total energy  -8.613893955D+02  Delta-E  -2.637015D-05 A.U.
 Total angular momentum   3.374831D-14  Delta-A  -3.814322D-14 h-bar
 Tr(PA)-NA =  4.805D-09
 Tr(PA**2-PA) = -3.097D-09
 Tr[(PA**2-PA)**2] =  3.709D-11
 Cartesian coordinates:
 I=    1 X=  -3.086461236207D+00 Y=  -2.133141111709D+00 Z=  -5.488229029443D-01
 I=    2 X=  -1.651279640708D+00 Y=  -3.605442118454D-02 Z=  -1.419797093662D-02
 I=    3 X=  -3.192376638265D+00 Y=   2.040469332723D+00 Z=  -5.063051511959D-01
 I=    4 X=  -2.535484621987D-01 Y=  -3.865076110837D-02 Z=   2.282367988162D+00
 I=    5 X=   1.657795553708D+00 Y=   1.774230200740D-02 Z=  -1.488665793923D-01
 I=    6 X=   2.789046388671D+00 Y=   2.511916973454D+00 Z=  -3.303074889503D-01
 I=    7 X=   2.847468662228D+00 Y=  -2.371608231405D+00 Z=  -3.905831527385D-01
 MW Cartesian velocity:
 I=    1 X=   1.216495991122D+14 Y=   4.717079256745D+13 Z=   9.107477954100D+13
 I=    2 X=   7.501513546288D+13 Y=  -3.607524187810D+13 Z=  -7.427693164945D+13
 I=    3 X=  -1.304290744795D+14 Y=   3.115270730602D+13 Z=   9.364408112129D+12
 I=    4 X=  -1.095624332596D+14 Y=  -4.674405793364D+13 Z=  -8.503009373034D+12
 I=    5 X=   2.668986635699D+13 Y=  -1.584413632134D+14 Z=  -4.742232651369D+13
 I=    6 X=   1.332544001088D+14 Y=   6.718719687145D+12 Z=   1.209898621709D+13
 I=    7 X=  -1.168336696132D+14 Y=   2.099190708245D+14 Z=   1.832277349118D+13
 DVelV1: Constraint failed to achieve idempotency:
         ICType= 10 MaxIt=  30 Ademp= 1.26D-11 Conv= 1.00D-12
 TRJ-TRJ-TRJ-TRJ-TRJ-TRJ-TRJ-TRJ-TRJ-TRJ-TRJ-TRJ-TRJ-TRJ-TRJ-TRJ-TRJ-TRJ
                          Input orientation:                          
 ---------------------------------------------------------------------
 Center     Atomic      Atomic             Coordinates (Angstroms)
 Number     Number       Type             X           Y           Z
 ---------------------------------------------------------------------
      1          9           0       -1.631806   -1.128236   -0.289319
      2          6           0       -0.872695   -0.019623   -0.008647
      3          9           0       -1.690909    1.080142   -0.267810
      4          8           0       -0.135622   -0.021072    1.207664
      5         16           0        0.877515    0.007915   -0.079219
      6          8           0        1.477662    1.329334   -0.174632
      7          8           0        1.505278   -1.252237   -0.206448
 ---------------------------------------------------------------------
                    Distance matrix (angstroms):
                    1          2          3          4          5
     1  F    0.000000
     2  C    1.372607   0.000000
     3  F    2.209273   1.395035   0.000000
     4  O    2.388585   1.422214   2.410107   0.000000
     5  S    2.762548   1.751848   2.789630   1.638095   0.000000
     6  O    3.965047   2.715035   3.179720   2.517345   1.454451
     7  O    3.140627   2.685743   3.957192   2.491592   1.413597
                    6          7
     6  O    0.000000
     7  O    2.581914   0.000000
 Symmetry turned off by external request.
 Stoichiometry    CF2O3S
 Framework group  C1[X(CF2O3S)]
 Deg. of freedom    15
 Full point group                 C1      NOp   1
 Rotational constants (GHZ):           3.9716154           2.1251247           1.6306777
 Standard basis: 6-31G(d) (6D, 7F)
   109 basis functions,   220 primitive gaussians,   109 cartesian basis functions
    32 alpha electrons       32 beta electrons
       nuclear repulsion energy       432.3864744688 Hartrees.
 NAtoms=    7 NActive=    7 NUniq=    7 SFac= 1.00D+00 NAtFMM=   60 NAOKFM=F Big=F
 Integral buffers will be    131072 words long.
 Raffenetti 2 integral format.
 Two-electron integral symmetry is turned off.
 One-electron integrals computed using PRISM.
 NBasis=   109 RedAO= T EigKep=  3.95D-03  NBF=   109
 NBsUse=   109 1.00D-06 EigRej= -1.00D+00 NBFU=   109
 Keep R1 ints in memory in canonical form, NReq=25451713.
 Requested convergence on RMS density matrix=1.00D-08 within 128 cycles.
 Requested convergence on MAX density matrix=1.00D-06.
 Requested convergence on             energy=1.00D-06.
 No special actions if energy rises.
 SCF Done:  E(RB3LYP) =  -861.486853251     A.U. after    1 cycles
            NFock=  1  Conv=0.20D+01     -V/T= 2.0059
 Calling FoFJK, ICntrl=      2127 FMM=F ISym2X=0 I1Cent= 0 IOpClX= 0 NMat=1 NMatS=1 NMatT=0.
 -------------------------------------------------------------------
 Center     Atomic                   Forces (Hartrees/Bohr)
 Number     Number              X              Y              Z
 -------------------------------------------------------------------
      1        9           0.019498643    0.018216271    0.008964452
      2        6          -0.055261519    0.024293630   -0.017059145
      3        9           0.036545077   -0.043004957    0.016376472
      4        8          -0.024959470   -0.000314311    0.011570141
      5       16          -0.022432832    0.093255276    0.003689842
      6        8          -0.002366659   -0.021269479   -0.009318715
      7        8           0.048976760   -0.071176431   -0.014223047
 -------------------------------------------------------------------
 Cartesian Forces:  Max     0.093255276 RMS     0.035431253
 TRJ-TRJ-TRJ-TRJ-TRJ-TRJ-TRJ-TRJ-TRJ-TRJ-TRJ-TRJ-TRJ-TRJ-TRJ-TRJ-TRJ-TRJ

 ADMP step      6
 Frobenius norm of [F,P] =     7.014718D-02
 Current gradient on entry to l121
 I=    1 X=  -1.949864345065D-02 Y=  -1.821627123216D-02 Z=  -8.964452146343D-03
 I=    2 X=   5.526151942217D-02 Y=  -2.429363020891D-02 Z=   1.705914527820D-02
 I=    3 X=  -3.654507715471D-02 Y=   4.300495737245D-02 Z=  -1.637647187925D-02
 I=    4 X=   2.495947015357D-02 Y=   3.143105422324D-04 Z=  -1.157014107282D-02
 I=    5 X=   2.243283207794D-02 Y=  -9.325527622294D-02 Z=  -3.689842385759D-03
 I=    6 X=   2.366659228905D-03 Y=   2.126947889406D-02 Z=   9.318715150255D-03
 I=    7 X=  -4.897676027728D-02 Y=   7.117643085524D-02 Z=   1.422304705573D-02
 DVelV2: Constraint failed to achieve ||WP+PW-W|| = 0
         ICType= 10 MaxIt=  30 Ademp= 3.39D-10 Conv= 1.00D-12

 Summary information for step      6
 Time (fs)     0.600000
 EKinC      =      0.0917234; EKinPA =      0.0028665; EKinPB =      0.0028665
 EKin       =      0.0974564; EPot   =   -861.4868533; ETot   =   -861.3893968
 ETot-EKinP =   -861.3951298
 Adiabaticity Index =    3.0352D-03
 Integrand for the Velocity-Velocity Auto-Correlation  Function =   1.793597787679D-01
 Angular momentum
   JX = -0.8366326560D-14  JY =  0.2686098337D-13  JZ =  0.2302357934D-13
 Jtot =  0.3635372131D-13 H-BAR;  J (Quantum Number) =  0.0000000000D+00
 Total energy  -8.613893968D+02  Delta-E  -1.350311D-06 A.U.
 Total angular momentum   3.635372D-14  Delta-A   2.605409D-15 h-bar
 Tr(PA)-NA =  1.207D-09
 Tr(PA**2-PA) = -7.779D-10
 Tr[(PA**2-PA)**2] =  9.317D-12
 Cartesian coordinates:
 I=    1 X=  -3.083665856843D+00 Y=  -2.132056984265D+00 Z=  -5.467345115233D-01
 I=    2 X=  -1.649153848523D+00 Y=  -3.708190067716D-02 Z=  -1.634048115827D-02
 I=    3 X=  -3.195354051436D+00 Y=   2.041172402819D+00 Z=  -5.060883924761D-01
 I=    4 X=  -2.562879211755D-01 Y=  -3.982000138060D-02 Z=   2.282154965796D+00
 I=    5 X=   1.658263142120D+00 Y=   1.495742837533D-02 Z=  -1.497027661178D-01
 I=    6 X=   2.792377262922D+00 Y=   2.512077208993D+00 Z=  -3.300073843445D-01
 I=    7 X=   2.844563953905D+00 Y=  -2.366384509959D+00 Z=  -3.901294022849D-01
 MW Cartesian velocity:
 I=    1 X=   1.220469233001D+14 Y=   4.746185369276D+13 Z=   9.110785304887D+13
 I=    2 X=   7.289187747689D+13 Y=  -3.525725135468D+13 Z=  -7.445623947213D+13
 I=    3 X=  -1.293748805332D+14 Y=   3.019448211144D+13 Z=   9.618859626779D+12
 I=    4 X=  -1.098619585418D+14 Y=  -4.677167831788D+13 Z=  -8.384509349954D+12
 I=    5 X=   2.625383028538D+13 Y=  -1.566987474233D+14 Z=  -4.724590117315D+13
 I=    6 X=   1.331970545655D+14 Y=   6.149017810932D+12 Z=   1.191099773700D+13
 I=    7 X=  -1.156031743612D+14 Y=   2.080712433169D+14 Z=   1.798477814520D+13
 DVelV1: Constraint failed to achieve idempotency:
         ICType= 10 MaxIt=  30 Ademp= 3.48D-11 Conv= 1.00D-12
 TRJ-TRJ-TRJ-TRJ-TRJ-TRJ-TRJ-TRJ-TRJ-TRJ-TRJ-TRJ-TRJ-TRJ-TRJ-TRJ-TRJ-TRJ
                          Input orientation:                          
 ---------------------------------------------------------------------
 Center     Atomic      Atomic             Coordinates (Angstroms)
 Number     Number       Type             X           Y           Z
 ---------------------------------------------------------------------
      1          9           0       -1.630321   -1.127657   -0.288212
      2          6           0       -0.871593   -0.020156   -0.009788
      3          9           0       -1.692474    1.080503   -0.267692
      4          8           0       -0.137079   -0.021691    1.207555
      5         16           0        0.877759    0.006456   -0.079661
      6          8           0        1.479425    1.329412   -0.174476
      7          8           0        1.503756   -1.249495   -0.206212
 ---------------------------------------------------------------------
                    Distance matrix (angstroms):
                    1          2          3          4          5
     1  F    0.000000
     2  C    1.371039   0.000000
     3  F    2.209130   1.397073   0.000000
     4  O    2.385425   1.421772   2.410485   0.000000
     5  S    2.760466   1.750949   2.791959   1.639395   0.000000
     6  O    3.964927   2.715831   3.183016   2.519638   1.456435
     7  O    3.137517   2.681816   3.955826   2.489695   1.409007
                    6          7
     6  O    0.000000
     7  O    2.579217   0.000000
 Symmetry turned off by external request.
 Stoichiometry    CF2O3S
 Framework group  C1[X(CF2O3S)]
 Deg. of freedom    15
 Full point group                 C1      NOp   1
 Rotational constants (GHZ):           3.9757320           2.1251315           1.6312240
 Standard basis: 6-31G(d) (6D, 7F)
   109 basis functions,   220 primitive gaussians,   109 cartesian basis functions
    32 alpha electrons       32 beta electrons
       nuclear repulsion energy       432.5048424489 Hartrees.
 NAtoms=    7 NActive=    7 NUniq=    7 SFac= 1.00D+00 NAtFMM=   60 NAOKFM=F Big=F
 Integral buffers will be    131072 words long.
 Raffenetti 2 integral format.
 Two-electron integral symmetry is turned off.
 One-electron integrals computed using PRISM.
 NBasis=   109 RedAO= T EigKep=  3.93D-03  NBF=   109
 NBsUse=   109 1.00D-06 EigRej= -1.00D+00 NBFU=   109
 Keep R1 ints in memory in canonical form, NReq=25451713.
 Requested convergence on RMS density matrix=1.00D-08 within 128 cycles.
 Requested convergence on MAX density matrix=1.00D-06.
 Requested convergence on             energy=1.00D-06.
 No special actions if energy rises.
 SCF Done:  E(RB3LYP) =  -861.486364751     A.U. after    1 cycles
            NFock=  1  Conv=0.20D+01     -V/T= 2.0059
 Calling FoFJK, ICntrl=      2127 FMM=F ISym2X=0 I1Cent= 0 IOpClX= 0 NMat=1 NMatS=1 NMatT=0.
 -------------------------------------------------------------------
 Center     Atomic                   Forces (Hartrees/Bohr)
 Number     Number              X              Y              Z
 -------------------------------------------------------------------
      1        9           0.021717535    0.029043293    0.018961830
      2        6          -0.019719735    0.011465068   -0.034163298
      3        9           0.018512688   -0.037573799    0.022081722
      4        8          -0.047099901    0.000472877    0.023117968
      5       16          -0.013824051    0.068343618   -0.008639032
      6        8          -0.000013248   -0.015981545   -0.008100286
      7        8           0.040426713   -0.055769511   -0.013258905
 -------------------------------------------------------------------
 Cartesian Forces:  Max     0.068343618 RMS     0.029709151
 TRJ-TRJ-TRJ-TRJ-TRJ-TRJ-TRJ-TRJ-TRJ-TRJ-TRJ-TRJ-TRJ-TRJ-TRJ-TRJ-TRJ-TRJ

 ADMP step      7
 Frobenius norm of [F,P] =     8.024130D-02
 Current gradient on entry to l121
 I=    1 X=  -2.171753451701D-02 Y=  -2.904329302630D-02 Z=  -1.896183007932D-02
 I=    2 X=   1.971973545583D-02 Y=  -1.146506805796D-02 Z=   3.416329755361D-02
 I=    3 X=  -1.851268793728D-02 Y=   3.757379916805D-02 Z=  -2.208172151483D-02
 I=    4 X=   4.709990063233D-02 Y=  -4.728765565116D-04 Z=  -2.311796825811D-02
 I=    5 X=   1.382405141484D-02 Y=  -6.834361760160D-02 Z=   8.639032207413D-03
 I=    6 X=   1.324839105621D-05 Y=   1.598154505173D-02 Z=   8.100285550308D-03
 I=    7 X=  -4.042671343982D-02 Y=   5.576951102260D-02 Z=   1.325890454089D-02
 DVelV2: Constraint failed to achieve ||WP+PW-W|| = 0
         ICType= 10 MaxIt=  30 Ademp= 7.26D-10 Conv= 1.00D-12

 Summary information for step      7
 Time (fs)     0.700000
 EKinC      =      0.0910837; EKinPA =      0.0029481; EKinPB =      0.0029481
 EKin       =      0.0969799; EPot   =   -861.4863648; ETot   =   -861.3893849
 ETot-EKinP =   -861.3952811
 Adiabaticity Index =    1.4647D-03
 Integrand for the Velocity-Velocity Auto-Correlation  Function =   1.786856254243D-01
 Angular momentum
   JX =  0.8023331550D-14  JY =  0.9209118266D-14  JZ =  0.9668233607D-13
 Jtot =  0.9745078664D-13 H-BAR;  J (Quantum Number) =  0.0000000000D+00
 Total energy  -8.613893849D+02  Delta-E   1.191842D-05 A.U.
 Total angular momentum   9.745079D-14  Delta-A   6.109707D-14 h-bar
 Tr(PA)-NA = -3.343D-09
 Tr(PA**2-PA) =  2.154D-09
 Tr[(PA**2-PA)**2] =  2.580D-11
 Cartesian coordinates:
 I=    1 X=  -3.080861103991D+00 Y=  -2.130963320998D+00 Z=  -5.446424122838D-01
 I=    2 X=  -1.647071226200D+00 Y=  -3.808999954059D-02 Z=  -1.849670392683D-02
 I=    3 X=  -3.198313014347D+00 Y=   2.041854808796D+00 Z=  -5.058637891016D-01
 I=    4 X=  -2.590424332834D-01 Y=  -4.098971675479D-02 Z=   2.281948696057D+00
 I=    5 X=   1.658724172096D+00 Y=   1.219974548370D-02 Z=  -1.505377036487D-01
 I=    6 X=   2.795707300019D+00 Y=   2.512224473215D+00 Z=  -3.297118443976D-01
 I=    7 X=   2.841687584722D+00 Y=  -2.361203015537D+00 Z=  -3.896837708924D-01
 MW Cartesian velocity:
 I=    1 X=   1.224776726159D+14 Y=   4.799514791529D+13 Z=   9.138094832444D+13
 I=    2 X=   7.187731974854D+13 Y=  -3.475848268455D+13 Z=  -7.516114955256D+13
 I=    3 X=  -1.287639251764D+14 Y=   2.935353251102D+13 Z=   1.002309238805D+13
 I=    4 X=  -1.107215870646D+14 Y=  -4.677956047278D+13 Z=  -7.978954121144D+12
 I=    5 X=   2.595424037265D+13 Y=  -1.553687024664D+14 Z=  -4.727859968183D+13
 I=    6 X=   1.331923671059D+14 Y=   5.690120231692D+12 Z=   1.173815249096D+13
 I=    7 X=  -1.145718235232D+14 Y=   2.065608614449D+14 Z=   1.767067765422D+13
 DVelV1: Constraint failed to achieve idempotency:
         ICType= 10 MaxIt=  30 Ademp= 7.63D-11 Conv= 1.00D-12
 TRJ-TRJ-TRJ-TRJ-TRJ-TRJ-TRJ-TRJ-TRJ-TRJ-TRJ-TRJ-TRJ-TRJ-TRJ-TRJ-TRJ-TRJ
                          Input orientation:                          
 ---------------------------------------------------------------------
 Center     Atomic      Atomic             Coordinates (Angstroms)
 Number     Number       Type             X           Y           Z
 ---------------------------------------------------------------------
      1          9           0       -1.628832   -1.127071   -0.287101
      2          6           0       -0.870499   -0.020685   -0.010943
      3          9           0       -1.694035    1.080855   -0.267567
      4          8           0       -0.138552   -0.022310    1.207453
      5         16           0        0.878001    0.005007   -0.080104
      6          8           0        1.481187    1.329485   -0.174322
      7          8           0        1.502246   -1.246771   -0.205980
 ---------------------------------------------------------------------
                    Distance matrix (angstroms):
                    1          2          3          4          5
     1  F    0.000000
     2  C    1.369460   0.000000
     3  F    2.208974   1.399092   0.000000
     4  O    2.382251   1.421351   2.410847   0.000000
     5  S    2.758379   1.750055   2.794273   1.640710   0.000000
     6  O    3.964795   2.716629   3.186306   2.521945   1.458407
     7  O    3.134415   2.677918   3.954472   2.487834   1.404448
                    6          7
     6  O    0.000000
     7  O    2.576536   0.000000
 Symmetry turned off by external request.
 Stoichiometry    CF2O3S
 Framework group  C1[X(CF2O3S)]
 Deg. of freedom    15
 Full point group                 C1      NOp   1
 Rotational constants (GHZ):           3.9798418           2.1251317           1.6317667
 Standard basis: 6-31G(d) (6D, 7F)
   109 basis functions,   220 primitive gaussians,   109 cartesian basis functions
    32 alpha electrons       32 beta electrons
       nuclear repulsion energy       432.6239070430 Hartrees.
 NAtoms=    7 NActive=    7 NUniq=    7 SFac= 1.00D+00 NAtFMM=   60 NAOKFM=F Big=F
 Integral buffers will be    131072 words long.
 Raffenetti 2 integral format.
 Two-electron integral symmetry is turned off.
 One-electron integrals computed using PRISM.
 NBasis=   109 RedAO= T EigKep=  3.92D-03  NBF=   109
 NBsUse=   109 1.00D-06 EigRej= -1.00D+00 NBFU=   109
 Keep R1 ints in memory in canonical form, NReq=25451713.
 Requested convergence on RMS density matrix=1.00D-08 within 128 cycles.
 Requested convergence on MAX density matrix=1.00D-06.
 Requested convergence on             energy=1.00D-06.
 No special actions if energy rises.
 SCF Done:  E(RB3LYP) =  -861.485781962     A.U. after    1 cycles
            NFock=  1  Conv=0.20D+01     -V/T= 2.0058
 Calling FoFJK, ICntrl=      2127 FMM=F ISym2X=0 I1Cent= 0 IOpClX= 0 NMat=1 NMatS=1 NMatT=0.
 -------------------------------------------------------------------
 Center     Atomic                   Forces (Hartrees/Bohr)
 Number     Number              X              Y              Z
 -------------------------------------------------------------------
      1        9           0.024212526    0.036489047    0.024576744
      2        6          -0.004181930    0.000608094   -0.041602920
      3        9           0.010667620   -0.033259920    0.023593210
      4        8          -0.059860598    0.001518141    0.030241448
      5       16          -0.007226988    0.050905397   -0.017392557
      6        8           0.002255570   -0.011954484   -0.006712722
      7        8           0.034133800   -0.044306275   -0.012703203
 -------------------------------------------------------------------
 Cartesian Forces:  Max     0.059860598 RMS     0.028431921
 TRJ-TRJ-TRJ-TRJ-TRJ-TRJ-TRJ-TRJ-TRJ-TRJ-TRJ-TRJ-TRJ-TRJ-TRJ-TRJ-TRJ-TRJ

 ADMP step      8
 Frobenius norm of [F,P] =     8.439773D-02
 Current gradient on entry to l121
 I=    1 X=  -2.421252571843D-02 Y=  -3.648904746975D-02 Z=  -2.457674372027D-02
 I=    2 X=   4.181929896017D-03 Y=  -6.080938095784D-04 Z=   4.160291973566D-02
 I=    3 X=  -1.066761963796D-02 Y=   3.325991971111D-02 Z=  -2.359320961390D-02
 I=    4 X=   5.986059840128D-02 Y=  -1.518140763854D-03 Z=  -3.024144803613D-02
 I=    5 X=   7.226987678344D-03 Y=  -5.090539700963D-02 Z=   1.739255680094D-02
 I=    6 X=  -2.255570446223D-03 Y=   1.195448432586D-02 Z=   6.712722051090D-03
 I=    7 X=  -3.413380017302D-02 Y=   4.430627501582D-02 Z=   1.270320278271D-02
 DVelV2: Constraint failed to achieve ||WP+PW-W|| = 0
         ICType= 10 MaxIt=  30 Ademp= 9.31D-10 Conv= 1.00D-12

 Summary information for step      8
 Time (fs)     0.800000
 EKinC      =      0.0908359; EKinPA =      0.0027834; EKinPB =      0.0027834
 EKin       =      0.0964027; EPot   =   -861.4857820; ETot   =   -861.3893793
 ETot-EKinP =   -861.3949460
 Adiabaticity Index =    3.0506D-04
 Integrand for the Velocity-Velocity Auto-Correlation  Function =   1.783989151609D-01
 Angular momentum
   JX =  0.6762142591D-14  JY =  0.1196244333D-13  JZ =  0.4153931201D-13
 Jtot =  0.4375318348D-13 H-BAR;  J (Quantum Number) =  0.0000000000D+00
 Total energy  -8.613893793D+02  Delta-E   5.636882D-06 A.U.
 Total angular momentum   4.375318D-14  Delta-A  -5.369760D-14 h-bar
 Tr(PA)-NA = -7.330D-09
 Tr(PA**2-PA) =  4.722D-09
 Tr[(PA**2-PA)**2] =  5.656D-11
 Cartesian coordinates:
 I=    1 X=  -3.078045959663D+00 Y=  -2.129854723308D+00 Z=  -5.425414898656D-01
 I=    2 X=  -1.645004009533D+00 Y=  -3.908868261061D-02 Z=  -2.067991215094D-02
 I=    3 X=  -3.201262393786D+00 Y=   2.042519291857D+00 Z=  -5.056284821312D-01
 I=    4 X=  -2.618248805184D-01 Y=  -4.215935119741D-02 Z=   2.281755954675D+00
 I=    5 X=   1.659181163780D+00 Y=   9.461916575819D-03 Z=  -1.513750469459D-01
 I=    6 X=   2.799037939860D+00 Y=   2.512361760229D+00 Z=  -3.294203834278D-01
 I=    7 X=   2.838834452138D+00 Y=  -2.356054825189D+00 Z=  -3.892457279597D-01
 MW Cartesian velocity:
 I=    1 X=   1.229580401078D+14 Y=   4.872439649995D+13 Z=   9.182928622821D+13
 I=    2 X=   7.155385143509D+13 Y=  -3.458039068543D+13 Z=  -7.619442434524D+13
 I=    3 X=  -1.284324556262D+14 Y=   2.861689077844D+13 Z=   1.050947439365D+13
 I=    4 X=  -1.119855599039D+14 Y=  -4.676419929053D+13 Z=  -7.354249153491D+12
 I=    5 X=   2.578040365909D+13 Y=  -1.543898248110D+14 Z=  -4.748879746216D+13
 I=    6 X=   1.332409388045D+14 Y=   5.340214849305D+12 Z=   1.158766930259D+13
 I=    7 X=  -1.137152544323D+14 Y=   2.053652485914D+14 Z=   1.736991586149D+13
 DVelV1: Constraint failed to achieve idempotency:
         ICType= 10 MaxIt=  30 Ademp= 9.76D-11 Conv= 1.00D-12
 TRJ-TRJ-TRJ-TRJ-TRJ-TRJ-TRJ-TRJ-TRJ-TRJ-TRJ-TRJ-TRJ-TRJ-TRJ-TRJ-TRJ-TRJ
                          Input orientation:                          
 ---------------------------------------------------------------------
 Center     Atomic      Atomic             Coordinates (Angstroms)
 Number     Number       Type             X           Y           Z
 ---------------------------------------------------------------------
      1          9           0       -1.627336   -1.126474   -0.285983
      2          6           0       -0.869406   -0.021213   -0.012116
      3          9           0       -1.695593    1.081198   -0.267436
      4          8           0       -0.140043   -0.022928    1.207361
      5         16           0        0.878242    0.003566   -0.080550
      6          8           0        1.482951    1.329553   -0.174169
      7          8           0        1.500747   -1.244060   -0.205752
 ---------------------------------------------------------------------
                    Distance matrix (angstroms):
                    1          2          3          4          5
     1  F    0.000000
     2  C    1.367868   0.000000
     3  F    2.208805   1.401100   0.000000
     4  O    2.379060   1.420949   2.411194   0.000000
     5  S    2.756286   1.749163   2.796577   1.642047   0.000000
     6  O    3.964651   2.717428   3.189595   2.524270   1.460370
     7  O    3.131320   2.674038   3.953128   2.486009   1.399914
                    6          7
     6  O    0.000000
     7  O    2.573869   0.000000
 Symmetry turned off by external request.
 Stoichiometry    CF2O3S
 Framework group  C1[X(CF2O3S)]
 Deg. of freedom    15
 Full point group                 C1      NOp   1
 Rotational constants (GHZ):           3.9839466           2.1251249           1.6323067
 Standard basis: 6-31G(d) (6D, 7F)
   109 basis functions,   220 primitive gaussians,   109 cartesian basis functions
    32 alpha electrons       32 beta electrons
       nuclear repulsion energy       432.7436948834 Hartrees.
 NAtoms=    7 NActive=    7 NUniq=    7 SFac= 1.00D+00 NAtFMM=   60 NAOKFM=F Big=F
 Integral buffers will be    131072 words long.
 Raffenetti 2 integral format.
 Two-electron integral symmetry is turned off.
 One-electron integrals computed using PRISM.
 NBasis=   109 RedAO= T EigKep=  3.90D-03  NBF=   109
 NBsUse=   109 1.00D-06 EigRej= -1.00D+00 NBFU=   109
 Keep R1 ints in memory in canonical form, NReq=25451713.
 Requested convergence on RMS density matrix=1.00D-08 within 128 cycles.
 Requested convergence on MAX density matrix=1.00D-06.
 Requested convergence on             energy=1.00D-06.
 No special actions if energy rises.
 SCF Done:  E(RB3LYP) =  -861.485203205     A.U. after    1 cycles
            NFock=  1  Conv=0.20D+01     -V/T= 2.0058
 Calling FoFJK, ICntrl=      2127 FMM=F ISym2X=0 I1Cent= 0 IOpClX= 0 NMat=1 NMatS=1 NMatT=0.
 -------------------------------------------------------------------
 Center     Atomic                   Forces (Hartrees/Bohr)
 Number     Number              X              Y              Z
 -------------------------------------------------------------------
      1        9           0.026396103    0.039056978    0.024835325
      2        6          -0.008975275   -0.005251700   -0.038545123
      3        9           0.013287744   -0.031150949    0.021080949
      4        8          -0.061798235    0.002622214    0.031750673
      5       16          -0.004679608    0.045125949   -0.021005253
      6        8           0.003897876   -0.010177806   -0.005357046
      7        8           0.031871394   -0.040224686   -0.012759524
 -------------------------------------------------------------------
 Cartesian Forces:  Max     0.061798235 RMS     0.027861716
 TRJ-TRJ-TRJ-TRJ-TRJ-TRJ-TRJ-TRJ-TRJ-TRJ-TRJ-TRJ-TRJ-TRJ-TRJ-TRJ-TRJ-TRJ

 ADMP step      9
 Frobenius norm of [F,P] =     8.620539D-02
 Current gradient on entry to l121
 I=    1 X=  -2.639610333412D-02 Y=  -3.905697759437D-02 Z=  -2.483532451724D-02
 I=    2 X=   8.975275088122D-03 Y=   5.251699552804D-03 Z=   3.854512268905D-02
 I=    3 X=  -1.328774383020D-02 Y=   3.115094881727D-02 Z=  -2.108094860292D-02
 I=    4 X=   6.179823533795D-02 Y=  -2.622213959323D-03 Z=  -3.175067309579D-02
 I=    5 X=   4.679607521027D-03 Y=  -4.512594892823D-02 Z=   2.100525312334D-02
 I=    6 X=  -3.897876419181D-03 Y=   1.017780630040D-02 Z=   5.357046008370D-03
 I=    7 X=  -3.187139436366D-02 Y=   4.022468581125D-02 Z=   1.275952439506D-02
 DVelV2: Constraint failed to achieve ||WP+PW-W|| = 0
         ICType= 10 MaxIt=  30 Ademp= 8.94D-10 Conv= 1.00D-12

 Summary information for step      9
 Time (fs)     0.900000
 EKinC      =      0.0907665; EKinPA =      0.0025278; EKinPB =      0.0025278
 EKin       =      0.0958221; EPot   =   -861.4852032; ETot   =   -861.3893811
 ETot-EKinP =   -861.3944367
 Adiabaticity Index =   -2.8016D-04
 Integrand for the Velocity-Velocity Auto-Correlation  Function =   1.782817938096D-01
 Angular momentum
   JX = -0.2679009815D-14  JY =  0.5949517027D-14  JZ =  0.1045986288D-12
 Jtot =  0.1048019417D-12 H-BAR;  J (Quantum Number) =  0.0000000000D+00
 Total energy  -8.613893811D+02  Delta-E  -1.873725D-06 A.U.
 Total angular momentum   1.048019D-13  Delta-A   6.104876D-14 h-bar
 Tr(PA)-NA = -9.384D-09
 Tr(PA**2-PA) =  6.045D-09
 Tr[(PA**2-PA)**2] =  7.241D-11
 Cartesian coordinates:
 I=    1 X=  -3.075219165112D+00 Y=  -2.128727598415D+00 Z=  -5.404288186078D-01
 I=    2 X=  -1.642940062661D+00 Y=  -4.008649932768D-02 Z=  -2.289579106748D-02
 I=    3 X=  -3.204206147192D+00 Y=   2.043167896972D+00 Z=  -5.053815610819D-01
 I=    4 X=  -2.646426013140D-01 Y=  -4.332829839040D-02 Z=   2.281580925149D+00
 I=    5 X=   1.659636045017D+00 Y=   6.738857347897D-03 Z=  -1.522174193357D-01
 I=    6 X=   2.802370405927D+00 Y=   2.512491526400D+00 Z=  -3.291323688364D-01
 I=    7 X=   2.836000918218D+00 Y=  -2.350933120912D+00 Z=  -3.888151370472D-01
 MW Cartesian velocity:
 I=    1 X=   1.234917816454D+14 Y=   4.955533189082D+13 Z=   9.234711534102D+13
 I=    2 X=   7.137566415877D+13 Y=  -3.463257313598D+13 Z=  -7.728214751134D+13
 I=    3 X=  -1.281629777109D+14 Y=   2.794307246286D+13 Z=   1.099411651495D+13
 I=    4 X=  -1.134155178506D+14 Y=  -4.672534362246D+13 Z=  -6.628020618073D+12
 I=    5 X=   2.568195820405D+13 Y=  -1.536003969080D+14 Z=  -4.780504207961D+13
 I=    6 X=   1.333284274310D+14 Y=   5.065392026313D+12 Z=   1.146278450547D+13
 I=    7 X=  -1.129546520757D+14 Y=   2.043590701314D+14 Z=   1.706528559707D+13
 DVelV1: Constraint failed to achieve idempotency:
         ICType= 10 MaxIt=  30 Ademp= 9.34D-11 Conv= 1.00D-12
 TRJ-TRJ-TRJ-TRJ-TRJ-TRJ-TRJ-TRJ-TRJ-TRJ-TRJ-TRJ-TRJ-TRJ-TRJ-TRJ-TRJ-TRJ
                          Input orientation:                          
 ---------------------------------------------------------------------
 Center     Atomic      Atomic             Coordinates (Angstroms)
 Number     Number       Type             X           Y           Z
 ---------------------------------------------------------------------
      1          9           0       -1.625833   -1.125867   -0.284858
      2          6           0       -0.868318   -0.021743   -0.013304
      3          9           0       -1.697147    1.081533   -0.267300
      4          8           0       -0.141553   -0.023546    1.207278
[...]
 Calling FoFJK, ICntrl=      2127 FMM=F ISym2X=0 I1Cent= 0 IOpClX= 0 NMat=1 NMatS=1 NMatT=0.
 -------------------------------------------------------------------
 Center     Atomic                   Forces (Hartrees/Bohr)
 Number     Number              X              Y              Z
 -------------------------------------------------------------------
      1        9           0.026751784    0.020851656    0.002554643
      2        6          -0.070270413    0.015942210    0.005863005
      3        9           0.047241839   -0.038032768    0.006121532
      4        8          -0.028245687    0.002914202    0.008002979
      5       16          -0.031044098    0.101794725   -0.003503640
      6        8           0.001759351   -0.018216815   -0.002543346
      7        8           0.053807223   -0.085253211   -0.016495173
 -------------------------------------------------------------------
 Cartesian Forces:  Max     0.101794725 RMS     0.039692006
 TRJ-TRJ-TRJ-TRJ-TRJ-TRJ-TRJ-TRJ-TRJ-TRJ-TRJ-TRJ-TRJ-TRJ-TRJ-TRJ-TRJ-TRJ

 ADMP step     13
 Frobenius norm of [F,P] =     8.144410D-02
 Current gradient on entry to l121
 I=    1 X=  -2.675178373478D-02 Y=  -2.085165605742D-02 Z=  -2.554642587726D-03
 I=    2 X=   7.027041263363D-02 Y=  -1.594221031070D-02 Z=  -5.863005463621D-03
 I=    3 X=  -4.724183890248D-02 Y=   3.803276751900D-02 Z=  -6.121531930550D-03
 I=    4 X=   2.824568658025D-02 Y=  -2.914201948134D-03 Z=  -8.002979266312D-03
 I=    5 X=   3.104409778494D-02 Y=  -1.017947251468D-01 Z=   3.503639598363D-03
 I=    6 X=  -1.759351489810D-03 Y=   1.821681476569D-02 Z=   2.543346380608D-03
 I=    7 X=  -5.380722287181D-02 Y=   8.525321117855D-02 Z=   1.649517326927D-02
 DVelV2: Constraint failed to achieve ||WP+PW-W|| = 0
         ICType= 10 MaxIt=  30 Ademp= 8.05D-11 Conv= 1.00D-12

 Summary information for step     13
 Time (fs)     1.300000
 EKinC      =      0.0888367; EKinPA =      0.0019653; EKinPB =      0.0019653
 EKin       =      0.0927674; EPot   =   -861.4821594; ETot   =   -861.3893920
 ETot-EKinP =   -861.3933227
 Adiabaticity Index =    1.2096D-04
 Integrand for the Velocity-Velocity Auto-Correlation  Function =   1.760265907312D-01
 Angular momentum
   JX = -0.6474752568D-14  JY =  0.2179728098D-14  JZ =  0.5805421217D-13
 Jtot =  0.5845481320D-13 H-BAR;  J (Quantum Number) =  0.0000000000D+00
 Total energy  -8.613893920D+02  Delta-E   2.774465D-06 A.U.
 Total angular momentum   5.845481D-14  Delta-A   2.344114D-14 h-bar
 Tr(PA)-NA = -7.447D-10
 Tr(PA**2-PA) =  4.799D-10
 Tr[(PA**2-PA)**2] =  5.747D-12
 Cartesian coordinates:
 I=    1 X=  -3.063777594420D+00 Y=  -2.124042126053D+00 Z=  -5.318818755497D-01
 I=    2 X=  -1.634901300758D+00 Y=  -4.409693743297D-02 Z=  -3.196704413664D-02
 I=    3 X=  -3.215865725417D+00 Y=   2.045603811446D+00 Z=  -5.043093567862D-01
 I=    4 X=  -2.762273798265D-01 Y=  -4.798812303992D-02 Z=   2.281039244373D+00
 I=    5 X=   1.661429539344D+00 Y=  -3.992545731256D-03 Z=  -1.556410810467D-01
 I=    6 X=   2.815724643113D+00 Y=   2.512943744145D+00 Z=  -3.280044086745D-01
 I=    7 X=   2.824874418224D+00 Y=  -2.330724461549D+00 Z=  -3.871777000009D-01
 MW Cartesian velocity:
 I=    1 X=   1.258762154922D+14 Y=   5.221905845683D+13 Z=   9.356693026339D+13
 I=    2 X=   6.653050577838D+13 Y=  -3.437052264258D+13 Z=  -7.887320822433D+13
 I=    3 X=  -1.253741254355D+14 Y=   2.499350437959D+13 Z=   1.213052891506D+13
 I=    4 X=  -1.175967172785D+14 Y=  -4.644180715555D+13 Z=  -4.642746491993D+12
 I=    5 X=   2.467771922828D+13 Y=  -1.490464029793D+14 Z=  -4.876459458920D+13
 I=    6 X=   1.336517964012D+14 Y=   3.845594829359D+12 Z=   1.111040865155D+13
 I=    7 X=  -1.091184272766D+14 Y=   1.989413451715D+14 Z=   1.559920140339D+13
 DVelV1: Constraint failed to achieve idempotency:
         ICType= 10 MaxIt=  30 Ademp= 7.72D-12 Conv= 1.00D-12
 TRJ-TRJ-TRJ-TRJ-TRJ-TRJ-TRJ-TRJ-TRJ-TRJ-TRJ-TRJ-TRJ-TRJ-TRJ-TRJ-TRJ-TRJ
                          Input orientation:                          
 ---------------------------------------------------------------------
 Center     Atomic      Atomic             Coordinates (Angstroms)
 Number     Number       Type             X           Y           Z
 ---------------------------------------------------------------------
      1          9           0       -1.619750   -1.123358   -0.280323
      2          6           0       -0.864151   -0.023857   -0.018120
      3          9           0       -1.703279    1.082785   -0.266721
      4          8           0       -0.147733   -0.026008    1.207014
      5         16           0        0.879419   -0.003500   -0.082818
      6          8           0        1.491786    1.329841   -0.173426
      7          8           0        1.493424   -1.230747   -0.204682
 ---------------------------------------------------------------------
                    Distance matrix (angstroms):
                    1          2          3          4          5
     1  F    0.000000
     2  C    1.359626   0.000000
     3  F    2.207766   1.410885   0.000000
     4  O    2.362875   1.419229   2.412683   0.000000
     5  S    2.745712   1.744889   2.807875   1.649005   0.000000
     6  O    3.963744   2.721590   3.205960   2.536132   1.470034
     7  O    3.115943   2.655098   3.946541   2.477434   1.377675
                    6          7
     6  O    0.000000
     7  O    2.560779   0.000000
 Symmetry turned off by external request.
 Stoichiometry    CF2O3S
 Framework group  C1[X(CF2O3S)]
 Deg. of freedom    15
 Full point group                 C1      NOp   1
 Rotational constants (GHZ):           4.0043591           2.1249933           1.6349615
 Standard basis: 6-31G(d) (6D, 7F)
   109 basis functions,   220 primitive gaussians,   109 cartesian basis functions
    32 alpha electrons       32 beta electrons
       nuclear repulsion energy       433.3521830406 Hartrees.
 NAtoms=    7 NActive=    7 NUniq=    7 SFac= 1.00D+00 NAtFMM=   60 NAOKFM=F Big=F
 Integral buffers will be    131072 words long.
 Raffenetti 2 integral format.
 Two-electron integral symmetry is turned off.
 One-electron integrals computed using PRISM.
 NBasis=   109 RedAO= T EigKep=  3.81D-03  NBF=   109
 NBsUse=   109 1.00D-06 EigRej= -1.00D+00 NBFU=   109
 Keep R1 ints in memory in canonical form, NReq=25451713.
 Requested convergence on RMS density matrix=1.00D-08 within 128 cycles.
 Requested convergence on MAX density matrix=1.00D-06.
 Requested convergence on             energy=1.00D-06.
 No special actions if energy rises.
 SCF Done:  E(RB3LYP) =  -861.480997058     A.U. after    1 cycles
            NFock=  1  Conv=0.20D+01     -V/T= 2.0058
 Calling FoFJK, ICntrl=      2127 FMM=F ISym2X=0 I1Cent= 0 IOpClX= 0 NMat=1 NMatS=1 NMatT=0.
 -------------------------------------------------------------------
 Center     Atomic                   Forces (Hartrees/Bohr)
 Number     Number              X              Y              Z
 -------------------------------------------------------------------
      1        9           0.025406647    0.017874368    0.000334370
      2        6          -0.068411122    0.019031313    0.008773352
      3        9           0.046286256   -0.037523624    0.006535507
      4        8          -0.024686617    0.001749241    0.003125453
      5       16          -0.037941876    0.116623851    0.000995273
      6        8          -0.000041200   -0.019829864   -0.002512834
      7        8           0.059387911   -0.097925284   -0.017251121
 -------------------------------------------------------------------
 Cartesian Forces:  Max     0.116623851 RMS     0.043180067
 TRJ-TRJ-TRJ-TRJ-TRJ-TRJ-TRJ-TRJ-TRJ-TRJ-TRJ-TRJ-TRJ-TRJ-TRJ-TRJ-TRJ-TRJ

 ADMP step     14
 Frobenius norm of [F,P] =     9.474284D-02
 Current gradient on entry to l121
 I=    1 X=  -2.540664720984D-02 Y=  -1.787436766931D-02 Z=  -3.343698910090D-04
 I=    2 X=   6.841112201387D-02 Y=  -1.903131256226D-02 Z=  -8.773351977876D-03
 I=    3 X=  -4.628625595191D-02 Y=   3.752362385789D-02 Z=  -6.535507150052D-03
 I=    4 X=   2.468661740512D-02 Y=  -1.749240537413D-03 Z=  -3.125452653123D-03
 I=    5 X=   3.794187557431D-02 Y=  -1.166238509796D-01 Z=  -9.952728541851D-04
 I=    6 X=   4.119951764636D-05 Y=   1.982986353203D-02 Z=   2.512833830666D-03
 I=    7 X=  -5.938791134932D-02 Y=   9.792528435866D-02 Z=   1.725112069561D-02
 DVelV2: Constraint failed to achieve ||WP+PW-W|| = 0
         ICType= 10 MaxIt=  30 Ademp= 7.17D-11 Conv= 1.00D-12

 Summary information for step     14
 Time (fs)     1.400000
 EKinC      =      0.0877813; EKinPA =      0.0019167; EKinPB =      0.0019167
 EKin       =      0.0916147; EPot   =   -861.4809971; ETot   =   -861.3893823
 ETot-EKinP =   -861.3932157
 Adiabaticity Index =    1.5087D-04
 Integrand for the Velocity-Velocity Auto-Correlation  Function =   1.748486871696D-01
 Angular momentum
   JX = -0.3159547941D-14  JY =  0.2195576833D-13  JZ =  0.2005619500D-13
 Jtot =  0.2990467295D-13 H-BAR;  J (Quantum Number) =  0.0000000000D+00
 Total energy  -8.613893823D+02  Delta-E   9.678614D-06 A.U.
 Total angular momentum   2.990467D-14  Delta-A  -2.855014D-14 h-bar
 Tr(PA)-NA =  7.422D-10
 Tr(PA**2-PA) = -4.784D-10
 Tr[(PA**2-PA)**2] =  5.728D-12
 Cartesian coordinates:
 I=    1 X=  -3.060883001404D+00 Y=  -2.122839122950D+00 Z=  -5.297342892205D-01
 I=    2 X=  -1.633008190061D+00 Y=  -4.508304440039D-02 Z=  -3.424140202256D-02
 I=    3 X=  -3.218730642880D+00 Y=   2.046167652491D+00 Z=  -5.040292670374D-01
 I=    4 X=  -2.791757907383D-01 Y=  -4.914848803372D-02 Z=   2.280925519975D+00
 I=    5 X=   1.661861411304D+00 Y=  -6.613501210832D-03 Z=  -1.565041154900D-01
 I=    6 X=   2.819066764736D+00 Y=   2.513034765069D+00 Z=  -3.277277022700D-01
 I=    7 X=   2.822161910656D+00 Y=  -2.325774919043D+00 Z=  -3.867928000759D-01
 MW Cartesian velocity:
 I=    1 X=   1.264422575024D+14 Y=   5.262051297409D+13 Z=   9.362754176903D+13
 I=    2 X=   6.465320415996D+13 Y=  -3.390612077488D+13 Z=  -7.866012534775D+13
 I=    3 X=  -1.243817674795D+14 Y=   2.416520334133D+13 Z=   1.228449380203D+13
 I=    4 X=  -1.181979000586D+14 Y=  -4.638034889986D+13 Z=  -4.510848535045D+12
 I=    5 X=   2.410455978730D+13 Y=  -1.472298090563D+14 Z=  -4.879615591788D+13
 I=    6 X=   1.336563588242D+14 Y=   3.412848009399D+12 Z=   1.101756524458D+13
 I=    7 X=  -1.077838383102D+14 Y=   1.968072469655D+14 Z=   1.518634786147D+13
 DVelV1: Constraint failed to achieve idempotency:
         ICType= 10 MaxIt=  30 Ademp= 6.98D-12 Conv= 1.00D-12
 TRJ-TRJ-TRJ-TRJ-TRJ-TRJ-TRJ-TRJ-TRJ-TRJ-TRJ-TRJ-TRJ-TRJ-TRJ-TRJ-TRJ-TRJ
                          Input orientation:                          
 ---------------------------------------------------------------------
 Center     Atomic      Atomic             Coordinates (Angstroms)
 Number     Number       Type             X           Y           Z
 ---------------------------------------------------------------------
      1          9           0       -1.618211   -1.122717   -0.279186
      2          6           0       -0.863177   -0.024371   -0.019319
      3          9           0       -1.704783    1.083074   -0.266571
      4          8           0       -0.149301   -0.026622    1.206955
      5         16           0        0.879642   -0.004869   -0.083275
      6          8           0        1.493554    1.329883   -0.173281
      7          8           0        1.492007   -1.228158   -0.204484
 ---------------------------------------------------------------------
                    Distance matrix (angstroms):
                    1          2          3          4          5
     1  F    0.000000
     2  C    1.357929   0.000000
     3  F    2.207525   1.412752   0.000000
     4  O    2.359605   1.418933   2.412929   0.000000
     5  S    2.743581   1.744101   2.810065   1.650421   0.000000
     6  O    3.963527   2.722479   3.209202   2.538529   1.471921
     7  O    3.112901   2.651468   3.945265   2.475831   1.373361
                    6          7
     6  O    0.000000
     7  O    2.558232   0.000000
 Symmetry turned off by external request.
 Stoichiometry    CF2O3S
 Framework group  C1[X(CF2O3S)]
 Deg. of freedom    15
 Full point group                 C1      NOp   1
 Rotational constants (GHZ):           4.0083990           2.1249512           1.6354779
 Standard basis: 6-31G(d) (6D, 7F)
   109 basis functions,   220 primitive gaussians,   109 cartesian basis functions
    32 alpha electrons       32 beta electrons
       nuclear repulsion energy       433.4750056600 Hartrees.
 NAtoms=    7 NActive=    7 NUniq=    7 SFac= 1.00D+00 NAtFMM=   60 NAOKFM=F Big=F
 Integral buffers will be    131072 words long.
 Raffenetti 2 integral format.
 Two-electron integral symmetry is turned off.
 One-electron integrals computed using PRISM.
 NBasis=   109 RedAO= T EigKep=  3.79D-03  NBF=   109
 NBsUse=   109 1.00D-06 EigRej= -1.00D+00 NBFU=   109
 Keep R1 ints in memory in canonical form, NReq=25451713.
 Requested convergence on RMS density matrix=1.00D-08 within 128 cycles.
 Requested convergence on MAX density matrix=1.00D-06.
 Requested convergence on             energy=1.00D-06.
 No special actions if energy rises.
 SCF Done:  E(RB3LYP) =  -861.479830372     A.U. after    1 cycles
            NFock=  1  Conv=0.20D+01     -V/T= 2.0057
 Calling FoFJK, ICntrl=      2127 FMM=F ISym2X=0 I1Cent= 0 IOpClX= 0 NMat=1 NMatS=1 NMatT=0.
 -------------------------------------------------------------------
 Center     Atomic                   Forces (Hartrees/Bohr)
 Number     Number              X              Y              Z
 -------------------------------------------------------------------
      1        9           0.024075753    0.016858337    0.000490341
      2        6          -0.062845066    0.017379344    0.007874733
      3        9           0.042454123   -0.034806346    0.007764196
      4        8          -0.023176718    0.000594174    0.000002687
      5       16          -0.041733497    0.127230407    0.004350554
      6        8          -0.001692643   -0.020573692   -0.002679967
      7        8           0.062918047   -0.106682224   -0.017802544
 -------------------------------------------------------------------
 Cartesian Forces:  Max     0.127230407 RMS     0.045159765
 TRJ-TRJ-TRJ-TRJ-TRJ-TRJ-TRJ-TRJ-TRJ-TRJ-TRJ-TRJ-TRJ-TRJ-TRJ-TRJ-TRJ-TRJ

 ADMP step     15
 Frobenius norm of [F,P] =     1.055852D-01
 Current gradient on entry to l121
 I=    1 X=  -2.407575257427D-02 Y=  -1.685833693238D-02 Z=  -4.903412395976D-04
 I=    2 X=   6.284506574056D-02 Y=  -1.737934421649D-02 Z=  -7.874732697909D-03
 I=    3 X=  -4.245412306074D-02 Y=   3.480634624039D-02 Z=  -7.764195664832D-03
 I=    4 X=   2.317671772781D-02 Y=  -5.941741583568D-04 Z=  -2.686811793495D-06
 I=    5 X=   4.173349670479D-02 Y=  -1.272304067812D-01 Z=  -4.350554297514D-03
 I=    6 X=   1.692642729044D-03 Y=   2.057369160540D-02 Z=   2.679967040361D-03
 I=    7 X=  -6.291804726723D-02 Y=   1.066822242426D-01 Z=   1.780254367128D-02
 DVelV2: Constraint failed to achieve ||WP+PW-W|| = 0
         ICType= 10 MaxIt=  30 Ademp= 5.80D-11 Conv= 1.00D-12

 Summary information for step     15
 Time (fs)     1.500000
 EKinC      =      0.0866321; EKinPA =      0.0019100; EKinPB =      0.0019100
 EKin       =      0.0904520; EPot   =   -861.4798304; ETot   =   -861.3893783
 ETot-EKinP =   -861.3931983
 Adiabaticity Index =    2.2172D-04
 Integrand for the Velocity-Velocity Auto-Correlation  Function =   1.735588454648D-01
 Angular momentum
   JX = -0.3152388736D-13  JY =  0.3213300067D-13  JZ =  0.3872959215D-13
 Jtot =  0.5938237545D-13 H-BAR;  J (Quantum Number) =  0.0000000000D+00
 Total energy  -8.613893783D+02  Delta-E   3.977858D-06 A.U.
 Total angular momentum   5.938238D-14  Delta-A   2.947770D-14 h-bar
 Tr(PA)-NA =  6.718D-10
 Tr(PA**2-PA) = -4.329D-10
 Tr[(PA**2-PA)**2] =  5.185D-12
 Cartesian coordinates:
 I=    1 X=  -3.057975781965D+00 Y=  -2.121627629874D+00 Z=  -5.275857687836D-01
 I=    2 X=  -1.631168546275D+00 Y=  -4.605450822863D-02 Z=  -3.650848859104D-02
 I=    3 X=  -3.221572992133D+00 Y=   2.046712633611D+00 Z=  -5.037456818681D-01
 I=    4 X=  -2.821382142391D-01 Y=  -5.030750910525D-02 Z=   2.280813666095D+00
 I=    5 X=   1.662282136364D+00 Y=  -9.200178543173D-03 Z=  -1.573670390186D-01
 I=    6 X=   2.822408523324D+00 Y=   2.513114413670D+00 Z=  -3.274534428472D-01
 I=    7 X=   2.819484369667D+00 Y=  -2.320882535022D+00 Z=  -3.864182619102D-01
 MW Cartesian velocity:
 I=    1 X=   1.269767243637D+14 Y=   5.298151927479D+13 Z=   9.367104723228D+13
 I=    2 X=   6.287642313801D+13 Y=  -3.341950003261D+13 Z=  -7.842225149156D+13
 I=    3 X=  -1.234366312634D+14 Y=   2.337445621808D+13 Z=   1.244284632896D+13
 I=    4 X=  -1.187431965529D+14 Y=  -4.633519715834D+13 Z=  -4.472691638838D+12
 I=    5 X=   2.344299393509D+13 Y=  -1.452053792901D+14 Z=  -4.876061340622D+13
 I=    6 X=   1.336257113222D+14 Y=   2.945220731987D+12 Z=   1.091569238636D+13
 I=    7 X=  -1.063461251331D+14 Y=   1.944144022449D+14 Z=   1.477378016069D+13
 DVelV1: Constraint failed to achieve idempotency:
         ICType= 10 MaxIt=  30 Ademp= 6.58D-12 Conv= 1.00D-12
 TRJ-TRJ-TRJ-TRJ-TRJ-TRJ-TRJ-TRJ-TRJ-TRJ-TRJ-TRJ-TRJ-TRJ-TRJ-TRJ-TRJ-TRJ
                          Input orientation:                          
 ---------------------------------------------------------------------
 Center     Atomic      Atomic             Coordinates (Angstroms)
 Number     Number       Type             X           Y           Z
 ---------------------------------------------------------------------
      1          9           0       -1.616666   -1.122072   -0.278049
      2          6           0       -0.862230   -0.024878   -0.020516
      3          9           0       -1.706276    1.083353   -0.266419
      4          8           0       -0.150876   -0.027234    1.206895
      5         16           0        0.879858   -0.006218   -0.083731
      6          8           0        1.495322    1.329919   -0.173137
      7          8           0        1.490610   -1.225602   -0.204291
 ---------------------------------------------------------------------
                    Distance matrix (angstroms):
                    1          2          3          4          5
     1  F    0.000000
     2  C    1.356220   0.000000
     3  F    2.207275   1.414588   0.000000
     4  O    2.356326   1.418650   2.413157   0.000000
     5  S    2.741446   1.743334   2.812228   1.651839   0.000000
     6  O    3.963298   2.723383   3.212433   2.540929   1.473787
     7  O    3.109875   2.647898   3.944010   2.474269   1.369106
                    6          7
     6  O    0.000000
     7  O    2.555715   0.000000
 Symmetry turned off by external request.
 Stoichiometry    CF2O3S
 Framework group  C1[X(CF2O3S)]
 Deg. of freedom    15
 Full point group                 C1      NOp   1
 Rotational constants (GHZ):           4.0124173           2.1249047           1.6359875
 Standard basis: 6-31G(d) (6D, 7F)
   109 basis functions,   220 primitive gaussians,   109 cartesian basis functions
    32 alpha electrons       32 beta electrons
       nuclear repulsion energy       433.5978702474 Hartrees.
 NAtoms=    7 NActive=    7 NUniq=    7 SFac= 1.00D+00 NAtFMM=   60 NAOKFM=F Big=F
 Integral buffers will be    131072 words long.
 Raffenetti 2 integral format.
 Two-electron integral symmetry is turned off.
 One-electron integrals computed using PRISM.
 NBasis=   109 RedAO= T EigKep=  3.77D-03  NBF=   109
 NBsUse=   109 1.00D-06 EigRej= -1.00D+00 NBFU=   109
 Keep R1 ints in memory in canonical form, NReq=25451713.
 Requested convergence on RMS density matrix=1.00D-08 within 128 cycles.
 Requested convergence on MAX density matrix=1.00D-06.
 Requested convergence on             energy=1.00D-06.
 No special actions if energy rises.
 SCF Done:  E(RB3LYP) =  -861.478732207     A.U. after    1 cycles
            NFock=  1  Conv=0.20D+01     -V/T= 2.0057
