 Entering Gaussian System, Link 0=g16
 Input=ISOPFMS_ADMP_600K.gjf
 Output=ISOPFMS_ADMP_600K.log
 Initial command:
 /apps/easybuild-2022/easybuild/software/Compiler/NVHPC/22.11-CUDA-11.7.0/Gaussian/g16c01-CUDA-11.7.0/g16/l1.exe "/tmp/Gau-68674.inp" -scrdir="/tmp/"
 Default is to use a total of   4 processors:
                                4 via shared-memory
                                1 via Linda
 Entering Link 1 = /apps/easybuild-2022/easybuild/software/Compiler/NVHPC/22.11-CUDA-11.7.0/Gaussian/g16c01-CUDA-11.7.0/g16/l1.exe PID=     68675.
  
 Copyright (c) 1988-2019, Gaussian, Inc.  All Rights Reserved.
  
 This is part of the Gaussian(R) 16 program.  It is based on
 the Gaussian(R) 09 system (copyright 2009, Gaussian, Inc.),
 the Gaussian(R) 03 system (copyright 2003, Gaussian, Inc.),
 the Gaussian(R) 98 system (copyright 1998, Gaussian, Inc.),
 the Gaussian(R) 94 system (copyright 1995, Gaussian, Inc.),
 the Gaussian 92(TM) system (copyright 1992, Gaussian, Inc.),
 the Gaussian 90(TM) system (copyright 1990, Gaussian, Inc.),
 the Gaussian 88(TM) system (copyright 1988, Gaussian, Inc.),
 the Gaussian 86(TM) system (copyright 1986, Carnegie Mellon
 University), and the Gaussian 82(TM) system (copyright 1983,
 Carnegie Mellon University). Gaussian is a federally registered
 trademark of Gaussian, Inc.
  
 This software contains proprietary and confidential information,
 including trade secrets, belonging to Gaussian, Inc.
  
 This software is provided under written license and may be
 used, copied, transmitted, or stored only in accord with that
 written license.
  
 The following legend is applicable only to US Government
 contracts under FAR:
  
                    RESTRICTED RIGHTS LEGEND
  
 Use, reproduction and disclosure by the US Government is
 subject to restrictions as set forth in subparagraphs (a)
 and (c) of the Commercial Computer Software - Restricted
 Rights clause in FAR 52.227-19.
  
 Gaussian, Inc.
 340 Quinnipiac St., Bldg. 40, Wallingford CT 06492
  
  
 ---------------------------------------------------------------
 Warning -- This program may not be used in any manner that
 competes with the business of Gaussian, Inc. or will provide
 assistance to any competitor of Gaussian, Inc.  The licensee
 of this program is prohibited from giving any competitor of
 Gaussian, Inc. access to this program.  By using this program,
 the user acknowledges that Gaussian, Inc. is engaged in the
 business of creating and licensing software in the field of
 computational chemistry and represents and warrants to the
 licensee that it is not a competitor of Gaussian, Inc. and that
 it will not use this program in any manner prohibited above.
 ---------------------------------------------------------------
  

 Cite this work as:
 Gaussian 16, Revision C.01,
 M. J. Frisch, G. W. Trucks, H. B. Schlegel, G. E. Scuseria, 
 M. A. Robb, J. R. Cheeseman, G. Scalmani, V. Barone, 
 G. A. Petersson, H. Nakatsuji, X. Li, M. Caricato, A. V. Marenich, 
 J. Bloino, B. G. Janesko, R. Gomperts, B. Mennucci, H. P. Hratchian, 
 J. V. Ortiz, A. F. Izmaylov, J. L. Sonnenberg, D. Williams-Young, 
 F. Ding, F. Lipparini, F. Egidi, J. Goings, B. Peng, A. Petrone, 
 T. Henderson, D. Ranasinghe, V. G. Zakrzewski, J. Gao, N. Rega, 
 G. Zheng, W. Liang, M. Hada, M. Ehara, K. Toyota, R. Fukuda, 
 J. Hasegawa, M. Ishida, T. Nakajima, Y. Honda, O. Kitao, H. Nakai, 
 T. Vreven, K. Throssell, J. A. Montgomery, Jr., J. E. Peralta, 
 F. Ogliaro, M. J. Bearpark, J. J. Heyd, E. N. Brothers, K. N. Kudin, 
 V. N. Staroverov, T. A. Keith, R. Kobayashi, J. Normand, 
 K. Raghavachari, A. P. Rendell, J. C. Burant, S. S. Iyengar, 
 J. Tomasi, M. Cossi, J. M. Millam, M. Klene, C. Adamo, R. Cammi, 
 J. W. Ochterski, R. L. Martin, K. Morokuma, O. Farkas, 
 J. B. Foresman, and D. J. Fox, Gaussian, Inc., Wallingford CT, 2019.
 
 ******************************************
 Gaussian 16:  ES64L-G16RevC.01  3-Jul-2019
                19-Mar-2025 
 ******************************************
 %chk=ISOPFMS_ADMP TRJTRY RSTF=10_600K.chk
 %mem=8GB
 %nprocshared=8
 Will use up to    8 processors via shared memory.
 -----------------------------------
 # B3LYP/6-31G(d) ADMP int=ultrafine
 -----------------------------------
 1/26=4,29=20000,38=1,172=1/1,21;
 2/12=2,17=6,18=5,29=2,40=1/2;
 3/5=1,6=6,7=1,11=2,25=1,30=1,65=-1,71=1,74=-5,75=-5,89=400,90=600/1,2,3;
 4//1;
 5/5=2,14=200,38=5/2;
 6/7=2,8=2,9=2,10=2,28=1/1;
 7/7=1,127=-100/1,2,3,16;
 1/26=4/21(2);
 2/29=1/2;
 99/12=1/99;
 2/29=1/2;
 3/5=1,6=6,7=1,11=2,25=1,30=1,65=-1,71=1,74=-5,75=-5,89=400,90=600/1,2,3;
 5/5=2,14=100/2;
 7/7=1,127=-100/1,2,3,16;
 1/26=4/21(-4);
 2/29=1/2;
 6/7=2,8=2,9=2,10=2,19=2,28=1/1;
 99/9=1,12=1/99;
 ------------------------------------------------------------
 ISOPFMS ADMP thermal decomposition simulation targeting 600K
 ------------------------------------------------------------
 Symbolic Z-matrix:
 Charge =  0 Multiplicity = 1
 C                    -1.59328  -0.34547   0.17872 
 F                    -2.96051  -0.39319   0.14956 
 F                    -1.24614   0.61611   1.08309 
 F                    -1.1757   -0.02978  -1.11553 
 O                    -1.04362  -1.57277   0.47894 
 S                     0.83084  -0.51651   0.28959 
 O                     1.30169  -0.57758  -1.19975 
 O                     1.78572  -0.17019   1.37007 
 O                     0.59405   1.86316   0.69013 
 H                     2.14214  -0.53714   0.18648 
 H                     0.98718   0.08535  -1.88158 
 H                     0.37763   1.578    -0.22972 
 
 TRJ-TRJ-TRJ-TRJ-TRJ-TRJ-TRJ-TRJ-TRJ-TRJ-TRJ-TRJ-TRJ-TRJ-TRJ-TRJ-TRJ-TRJ
 ------------------------------------------------------------------------
 INPUT DATA FOR L121
 ------------------------------------------------------------------------

 General parameters:
 Maximum Steps                =      50
 Random Number Generator Seed =    398465
 Time Step                    =  0.10000 femtosec
 Ficticious electronic mass   =  0.10000 amu
 MW individual basis funct.   = True 
 Initial nuclear kin. energy  =  0.10000 hartree
 Initial electr. kin. energy  =  0.00000 hartree
   Initial electr. KE scheme  =  0
 Multitime step - NDtrC       =       1
 Multitime step - NDtrP       =       1
 No Thermostats chosen to control nuclear temperature

 Integration parameters:

 Follow Rxn Path (DVV)        = False
 Constraint Scheme            =      10
 Projection of angular mom.   = True 
 Rotate density with nuclei   = True 
 ------------------------------------------------------------------------
 TRJ-TRJ-TRJ-TRJ-TRJ-TRJ-TRJ-TRJ-TRJ-TRJ-TRJ-TRJ-TRJ-TRJ-TRJ-TRJ-TRJ-TRJ
 ---------------------------------------------------------------------------------------------------
                            Z-MATRIX (ANGSTROMS AND DEGREES)
   CD    Cent   Atom    N1       Length/X        N2       Alpha/Y        N3        Beta/Z          J
 ---------------------------------------------------------------------------------------------------
      1      1  C        0  -1.593284         -0.345470          0.178720
      2      2  F        0  -2.960508         -0.393190          0.149560
      3      3  F        0  -1.246140          0.616114          1.083092
      4      4  F        0  -1.175700         -0.029778         -1.115527
      5      5  O        0  -1.043620         -1.572770          0.478941
      6      6  S        0   0.830836         -0.516509          0.289588
      7      7  O        0   1.301694         -0.577575         -1.199750
      8      8  O        0   1.785716         -0.170193          1.370073
      9      9  O        0   0.594053          1.863161          0.690133
     10     10  H        0   2.142143         -0.537138          0.186475
     11     11  H        0   0.987179          0.085346         -1.881583
     12     12  H        0   0.377632          1.578002         -0.229722
 ---------------------------------------------------------------------------------------------------
                         Z-Matrix orientation:                         
 ---------------------------------------------------------------------
 Center     Atomic      Atomic             Coordinates (Angstroms)
 Number     Number       Type             X           Y           Z
 ---------------------------------------------------------------------
      1          6           0       -1.593284   -0.345470    0.178720
      2          9           0       -2.960508   -0.393190    0.149560
      3          9           0       -1.246140    0.616114    1.083092
      4          9           0       -1.175700   -0.029778   -1.115527
      5          8           0       -1.043620   -1.572770    0.478941
      6         16           0        0.830836   -0.516509    0.289588
      7          8           0        1.301694   -0.577575   -1.199750
      8          8           0        1.785716   -0.170193    1.370073
      9          8           0        0.594053    1.863161    0.690133
     10          1           0        2.142143   -0.537138    0.186475
     11          1           0        0.987179    0.085346   -1.881583
     12          1           0        0.377632    1.578002   -0.229722
 ---------------------------------------------------------------------
                    Distance matrix (angstroms):
                    1          2          3          4          5
     1  C    0.000000
     2  F    1.368367   0.000000
     3  F    1.364933   2.197552   0.000000
     4  F    1.396106   2.217668   2.292611   0.000000
     5  O    1.377871   2.274722   2.279743   2.222746   0.000000
     6  S    2.432674   3.795933   2.495258   2.497487   2.159891
     7  O    3.214802   4.474483   3.623219   2.538633   3.051051
     8  O    3.587156   4.905713   3.145280   3.868838   3.281232
     9  O    3.150244   4.244790   2.257400   3.158426   3.812112
    10  H    3.740349   5.104814   3.689766   3.600098   3.362611
    11  H    3.330051   4.465285   3.749497   2.297420   3.527827
    12  H    2.784076   3.895206   2.298988   2.404672   3.528388
                    6          7          8          9         10
     6  S    0.000000
     7  O    1.563190   0.000000
     8  O    1.482963   2.646550   0.000000
     9  O    2.424733   3.166955   2.452939   0.000000
    10  H    1.315517   1.621607   1.289416   2.900291   0.000000
    11  H    2.258463   1.001639   3.358010   3.151015   2.449141
    12  H    2.205006   2.537983   2.756489   0.987060   2.785774
                   11         12
    11  H    0.000000
    12  H    2.308292   0.000000
 Symmetry turned off by external request.
 Stoichiometry    CH3F3O4S
 Framework group  C1[X(CH3F3O4S)]
 Deg. of freedom    30
 Full point group                 C1      NOp   1
 Rotational constants (GHZ):           2.2120128           1.1004451           0.9908017
 Standard basis: 6-31G(d) (6D, 7F)
   145 basis functions,   288 primitive gaussians,   145 cartesian basis functions
    42 alpha electrons       42 beta electrons
       nuclear repulsion energy       687.6661811447 Hartrees.
 NAtoms=   12 NActive=   12 NUniq=   12 SFac= 1.00D+00 NAtFMM=   60 NAOKFM=F Big=F
 Integral buffers will be    131072 words long.
 Raffenetti 2 integral format.
 Two-electron integral symmetry is turned off.
 One-electron integrals computed using PRISM.
 NBasis=   145 RedAO= T EigKep=  1.79D-03  NBF=   145
 NBsUse=   145 1.00D-06 EigRej= -1.00D+00 NBFU=   145
 ExpMin= 1.17D-01 ExpMax= 2.19D+04 ExpMxC= 3.30D+03 IAcc=3 IRadAn=         5 AccDes= 0.00D+00
 Harris functional with IExCor=  402 and IRadAn=       5 diagonalized for initial guess.
 HarFok:  IExCor=  402 AccDes= 0.00D+00 IRadAn=         5 IDoV= 1 UseB2=F ITyADJ=14
 ICtDFT=  3500011 ScaDFX=  1.000000  1.000000  1.000000  1.000000
 FoFCou: FMM=F IPFlag=           0 FMFlag=      100000 FMFlg1=           0
         NFxFlg=           0 DoJE=T BraDBF=F KetDBF=T FulRan=T
         wScrn=  0.000000 ICntrl=       500 IOpCl=  0 I1Cent=   200000004 NGrid=           0
         NMat0=    1 NMatS0=      1 NMatT0=    0 NMatD0=    1 NMtDS0=    0 NMtDT0=    0
 Symmetry not used in FoFCou.
 Keep R1 ints in memory in canonical form, NReq=63804720.
 Requested convergence on RMS density matrix=1.00D-08 within 128 cycles.
 Requested convergence on MAX density matrix=1.00D-06.
 Requested convergence on             energy=1.00D-06.
 No special actions if energy rises.
 Integral accuracy reduced to 1.0D-05 until final iterations.
 EnCoef did     3 forward-backward iterations
 EnCoef did   100 forward-backward iterations
 Problem detected with inexpensive integrals.
 Switching to full accuracy and repeating last cycle.
 EnCoef did   100 forward-backward iterations
 EnCoef did     3 forward-backward iterations
 EnCoef did     3 forward-backward iterations
 EnCoef did     2 forward-backward iterations
 EnCoef did   100 forward-backward iterations
 EnCoef did     2 forward-backward iterations
 SCF Done:  E(RB3LYP) =  -1038.00594431     A.U. after   31 cycles
            NFock= 31  Conv=0.81D-08     -V/T= 2.0050

 **********************************************************************

            Population analysis using the SCF Density.

 **********************************************************************

 Alpha  occ. eigenvalues --  -89.12963 -24.74137 -24.72407 -24.70704 -19.29258
 Alpha  occ. eigenvalues --  -19.27199 -19.17658 -19.13387 -10.45865  -8.17086
 Alpha  occ. eigenvalues --   -6.13523  -6.13336  -6.12764  -1.29671  -1.23433
 Alpha  occ. eigenvalues --   -1.22490  -1.19951  -1.14370  -0.98418  -0.96176
 Alpha  occ. eigenvalues --   -0.79988  -0.67642  -0.66308  -0.60506  -0.58895
 Alpha  occ. eigenvalues --   -0.57153  -0.55621  -0.51730  -0.50756  -0.46649
 Alpha  occ. eigenvalues --   -0.46356  -0.44982  -0.43880  -0.43538  -0.43051
 Alpha  occ. eigenvalues --   -0.40159  -0.39407  -0.38167  -0.30348  -0.29119
 Alpha  occ. eigenvalues --   -0.28078  -0.24541
 Alpha virt. eigenvalues --   -0.21101  -0.11817  -0.01041   0.03169   0.06801
 Alpha virt. eigenvalues --    0.10454   0.14612   0.19121   0.20531   0.22189
 Alpha virt. eigenvalues --    0.27094   0.35225   0.38866   0.46045   0.48810
 Alpha virt. eigenvalues --    0.50149   0.51509   0.55396   0.57020   0.62846
 Alpha virt. eigenvalues --    0.69913   0.70718   0.75704   0.77326   0.80006
 Alpha virt. eigenvalues --    0.84449   0.86036   0.86975   0.90508   0.94432
 Alpha virt. eigenvalues --    0.95216   0.96947   0.99353   1.00138   1.04949
 Alpha virt. eigenvalues --    1.06742   1.09026   1.11883   1.14439   1.15268
 Alpha virt. eigenvalues --    1.18710   1.19443   1.21285   1.27830   1.33194
 Alpha virt. eigenvalues --    1.34374   1.37312   1.37373   1.41959   1.42393
 Alpha virt. eigenvalues --    1.43956   1.50083   1.56994   1.62135   1.67299
 Alpha virt. eigenvalues --    1.70331   1.70903   1.72302   1.76157   1.76775
 Alpha virt. eigenvalues --    1.78544   1.80108   1.82694   1.83914   1.85645
 Alpha virt. eigenvalues --    1.86471   1.86657   1.88683   1.90241   1.92454
 Alpha virt. eigenvalues --    1.93276   1.96060   1.96864   1.99892   2.02038
 Alpha virt. eigenvalues --    2.02784   2.04659   2.09667   2.10725   2.16502
 Alpha virt. eigenvalues --    2.28536   2.31453   2.46572   2.48297   2.50948
 Alpha virt. eigenvalues --    2.53084   2.63133   2.67892   2.73932   2.75454
 Alpha virt. eigenvalues --    2.93247   2.97772   3.00175   3.20123   3.61718
 Alpha virt. eigenvalues --    3.70468   3.75712   3.88469   3.94248   4.35075
 Alpha virt. eigenvalues --    4.46498   4.90447   5.77987
          Condensed to atoms (all electrons):
               1          2          3          4          5          6
     1  C    4.089602   0.299833   0.242961   0.195073   0.264467   0.001819
     2  F    0.299833   9.083987  -0.036505  -0.032581  -0.043227   0.001063
     3  F    0.242961  -0.036505   9.145763  -0.026866  -0.051096  -0.006390
     4  F    0.195073  -0.032581  -0.026866   9.227179  -0.059472   0.004270
     5  O    0.264467  -0.043227  -0.051096  -0.059472   8.518164  -0.050549
     6  S    0.001819   0.001063  -0.006390   0.004270  -0.050549  15.427521
     7  O   -0.003572   0.000004   0.000133  -0.003646   0.006055  -0.242325
     8  O   -0.001361   0.000001   0.000202   0.000073   0.005312  -0.224642
     9  O    0.001054  -0.000015  -0.028801  -0.002393  -0.000583   0.163582
    10  H    0.001101   0.000000   0.000348   0.000584  -0.001977   0.154580
    11  H    0.000497  -0.000005   0.000195   0.006977  -0.002419   0.030000
    12  H   -0.000587  -0.000016   0.004553   0.011741  -0.000314  -0.031148
               7          8          9         10         11         12
     1  C   -0.003572  -0.001361   0.001054   0.001101   0.000497  -0.000587
     2  F    0.000004   0.000001  -0.000015   0.000000  -0.000005  -0.000016
     3  F    0.000133   0.000202  -0.028801   0.000348   0.000195   0.004553
     4  F   -0.003646   0.000073  -0.002393   0.000584   0.006977   0.011741
     5  O    0.006055   0.005312  -0.000583  -0.001977  -0.002419  -0.000314
     6  S   -0.242325  -0.224642   0.163582   0.154580   0.030000  -0.031148
     7  O    8.664351   0.015023  -0.007040  -0.028272   0.155036   0.004881
     8  O    0.015023   8.508903  -0.062323   0.057661  -0.003174   0.001868
     9  O   -0.007040  -0.062323   8.315418  -0.008512  -0.001638   0.153717
    10  H   -0.028272   0.057661  -0.008512   0.489038   0.007373  -0.000561
    11  H    0.155036  -0.003174  -0.001638   0.007373   0.363478   0.007145
    12  H    0.004881   0.001868   0.153717  -0.000561   0.007145   0.492252
 Mulliken charges:
               1
     1  C    0.909113
     2  F   -0.272538
     3  F   -0.244497
     4  F   -0.320940
     5  O   -0.584361
     6  S    0.772220
     7  O   -0.560628
     8  O   -0.297541
     9  O   -0.522467
    10  H    0.328636
    11  H    0.436534
    12  H    0.356469
 Sum of Mulliken charges =  -0.00000
 Mulliken charges with hydrogens summed into heavy atoms:
               1
     1  C    0.909113
     2  F   -0.272538
     3  F   -0.244497
     4  F   -0.320940
     5  O   -0.584361
     6  S    0.772220
     7  O   -0.124094
     8  O    0.031096
     9  O   -0.165997
 Electronic spatial extent (au):  <R**2>=           1236.6084
 Charge=             -0.0000 electrons
 Dipole moment (field-independent basis, Debye):
    X=              4.2377    Y=              0.2575    Z=             -3.7475  Tot=              5.6629
 Quadrupole moment (field-independent basis, Debye-Ang):
   XX=            -56.7616   YY=            -62.8880   ZZ=            -53.5558
   XY=             -4.8552   XZ=             -2.4157   YZ=             -3.7022
 Traceless Quadrupole moment (field-independent basis, Debye-Ang):
   XX=              0.9735   YY=             -5.1529   ZZ=              4.1794
   XY=             -4.8552   XZ=             -2.4157   YZ=             -3.7022
 Octapole moment (field-independent basis, Debye-Ang**2):
  XXX=             42.1994  YYY=             27.3074  ZZZ=            -43.6594  XYY=             11.4183
  XXY=              8.1192  XXZ=            -15.2786  XZZ=             10.1786  YZZ=             10.5472
  YYZ=            -17.9918  XYZ=             -4.8188
 Hexadecapole moment (field-independent basis, Debye-Ang**3):
 XXXX=           -743.0942 YYYY=           -321.4988 ZZZZ=           -232.1758 XXXY=            -40.4560
 XXXZ=            -10.1113 YYYX=            -41.8814 YYYZ=            -23.2377 ZZZX=            -18.9421
 ZZZY=            -20.7858 XXYY=           -177.7295 XXZZ=           -170.5179 YYZZ=            -97.4534
 XXYZ=             -8.4652 YYXZ=             -0.6855 ZZXY=             -6.4034
 N-N= 6.876661811447D+02 E-N=-3.836178698990D+03  KE= 1.032883318186D+03
 Calling FoFJK, ICntrl=      2127 FMM=F ISym2X=0 I1Cent= 0 IOpClX= 0 NMat=1 NMatS=1 NMatT=0.
 -------------------------------------------------------------------
 Center     Atomic                   Forces (Hartrees/Bohr)
 Number     Number              X              Y              Z
 -------------------------------------------------------------------
      1        6          -0.034475568   -0.093128773    0.029825302
      2        9           0.017173307    0.009152872   -0.004688973
      3        9          -0.035727380   -0.009356376   -0.013645678
      4        9          -0.010997031    0.030175904    0.000545802
      5        8          -0.034034905    0.065951314   -0.007873957
      6       16          -0.151358307   -0.028713912    0.065191376
      7        8           0.018727073    0.030459508   -0.106841682
      8        8           0.097391117    0.009596759    0.053563145
      9        8           0.007008788   -0.036149521   -0.044890491
     10        1           0.125976585   -0.011223400    0.032149118
     11        1           0.005142164   -0.004257873   -0.003312872
     12        1          -0.004825843    0.037493497   -0.000021088
 -------------------------------------------------------------------
 Cartesian Forces:  Max     0.151358307 RMS     0.051183909
 TRJ-TRJ-TRJ-TRJ-TRJ-TRJ-TRJ-TRJ-TRJ-TRJ-TRJ-TRJ-TRJ-TRJ-TRJ-TRJ-TRJ-TRJ

 ADMP step      0
 Frobenius norm of [F,P] =     1.184547D-12
 Current gradient on entry to l121
 I=    1 X=   3.447556803622D-02 Y=   9.312877286303D-02 Z=  -2.982530161378D-02
 I=    2 X=  -1.717330716237D-02 Y=  -9.152872397961D-03 Z=   4.688973326509D-03
 I=    3 X=   3.572738038027D-02 Y=   9.356375653319D-03 Z=   1.364567788456D-02
 I=    4 X=   1.099703079506D-02 Y=  -3.017590425804D-02 Z=  -5.458018511426D-04
 I=    5 X=   3.403490511037D-02 Y=  -6.595131428833D-02 Z=   7.873957349966D-03
 I=    6 X=   1.513583071912D-01 Y=   2.871391217801D-02 Z=  -6.519137577451D-02
 I=    7 X=  -1.872707330282D-02 Y=  -3.045950842703D-02 Z=   1.068416824720D-01
 I=    8 X=  -9.739111695919D-02 Y=  -9.596758853987D-03 Z=  -5.356314541891D-02
 I=    9 X=  -7.008788028657D-03 Y=   3.614952077212D-02 Z=   4.489049108019D-02
 I=   10 X=  -1.259765848597D-01 Y=   1.122340001087D-02 Z=  -3.214911823875D-02
 I=   11 X=  -5.142163986971D-03 Y=   4.257873425241D-03 Z=   3.312872479506D-03
 I=   12 X=   4.825842786534D-03 Y=  -3.749349667716D-02 Z=   2.108830445913D-05

 Summary information for step      0
 Time (fs)     0.000000
 EKinC      =      0.1000000; EKinPA =      0.0000000; EKinPB =      0.0000000
 EKin       =      0.1000000; EPot   =  -1038.0059443; ETot   =  -1037.9059443
 ETot-EKinP =  -1037.9059443
 Integrand for the Velocity-Velocity Auto-Correlation  Function =   1.875165883249D-01
 Angular momentum
   JX =  0.7727262137D-15  JY =  0.2709749262D-13  JZ = -0.2839638247D-13
 Jtot =  0.3925844813D-13 H-BAR;  J (Quantum Number) =  0.0000000000D+00
 Total energy  -1.037905944D+03 A.U.
 Total angular momentum   3.925845D-14 h-bar
 Tr(PA)-NA =  9.948D-14
 Tr(PA**2-PA) =  1.563D-13
 Tr[(PA**2-PA)**2] =  5.664D-16
 Cartesian coordinates:
 I=    1 X=  -2.458642332881D+00 Y=  -3.921649442989D-01 Z=  -3.479207623740D-02
 I=    2 X=  -5.042321243813D+00 Y=  -4.823426749631D-01 Z=  -8.989649002971D-02
 I=    3 X=  -1.802635247094D+00 Y=   1.424965461465D+00 Z=   1.674223318488D+00
 I=    4 X=  -1.669522938880D+00 Y=   2.044064754173D-01 Z=  -2.480564443777D+00
 I=    5 X=  -1.419927912348D+00 Y=  -2.711425816978D+00 Z=   5.325433906057D-01
 I=    6 X=   2.122280560200D+00 Y=  -7.153818109184D-01 Z=   1.747180797409D-01
 I=    7 X=   3.012073223761D+00 Y=  -8.307798264411D-01 Z=  -2.639722847167D+00
 I=    8 X=   3.926742242025D+00 Y=  -6.093941836349D-02 Z=   2.216538811442D+00
 I=    9 X=   1.674825539247D+00 Y=   3.781542755925D+00 Z=   9.316384303048D-01
 I=   10 X=   4.600291655425D+00 Y=  -7.543649711420D-01 Z=  -2.013725014139D-02
 I=   11 X=   2.417726011693D+00 Y=   4.219593057817D-01 Z=  -3.928200479857D+00
 I=   12 X=   1.265849121643D+00 Y=   3.242670343971D+00 Z=  -8.066355940070D-01
 MW Cartesian velocity:
 I=    1 X=   4.236585319245D+13 Y=   7.449453258551D+13 Z=   5.508149592473D+13
 I=    2 X=  -1.779012452152D+11 Y=  -8.709655767877D+12 Z=  -8.955095742064D+13
 I=    3 X=  -7.485072413631D+13 Y=   5.419752701226D+13 Z=  -2.946405398390D+13
 I=    4 X=  -9.803641417617D+13 Y=  -4.443868477867D+13 Z=  -1.878587474277D+13
 I=    5 X=   6.188728443345D+12 Y=  -7.232190427715D+13 Z=   5.480167515762D+13
 I=    6 X=   1.643441760200D+13 Y=  -9.450849982960D+13 Z=  -5.586284848287D+12
 I=    7 X=  -1.035406712110D+14 Y=   4.471500247801D+13 Z=   5.251680744305D+13
 I=    8 X=   8.589663494292D+13 Y=   1.031358082252D+12 Z=  -6.795564958180D+13
 I=    9 X=   1.667924161318D+13 Y=   4.695233338354D+13 Z=   5.661687688273D+13
 I=   10 X=   1.713578380831D+14 Y=   9.668259485650D+13 Z=   3.222192616152D+13
 I=   11 X=   1.793022366786D+14 Y=   6.329826090267D+13 Z=   1.347905206602D+13
 I=   12 X=   1.411820903464D+14 Y=   2.954259532520D+13 Z=   1.163132605649D+13
 TRJ-TRJ-TRJ-TRJ-TRJ-TRJ-TRJ-TRJ-TRJ-TRJ-TRJ-TRJ-TRJ-TRJ-TRJ-TRJ-TRJ-TRJ
                          Input orientation:                          
 ---------------------------------------------------------------------
 Center     Atomic      Atomic             Coordinates (Angstroms)
 Number     Number       Type             X           Y           Z
 ---------------------------------------------------------------------
      1          6           0       -1.300417   -0.206406   -0.017564
      2          9           0       -2.668281   -0.255349   -0.048659
      3          9           0       -0.954827    0.754716    0.885601
      4          9           0       -0.884665    0.107632   -1.312886
      5          8           0       -0.751317   -1.435771    0.282534
      6         16           0        1.123205   -0.379450    0.092410
      7          8           0        1.592553   -0.439033   -1.396203
      8          8           0        2.079094   -0.032233    1.172051
      9          8           0        0.886501    2.001722    0.493744
     10          1           0        2.443712   -0.394124   -0.008879
     11          1           0        1.288870    0.226617   -2.078012
     12          1           0        0.677289    1.717597   -0.426240
 ---------------------------------------------------------------------
                    Distance matrix (angstroms):
                    1          2          3          4          5
     1  C    0.000000
     2  F    1.369092   0.000000
     3  F    1.363413   2.197499   0.000000
     4  F    1.396184   2.216148   2.292812   0.000000
     5  O    1.379460   2.275486   2.281084   2.223789   0.000000
     6  S    2.432279   3.796138   2.496738   2.498729   2.160044
     7  O    3.213105   4.472620   3.622266   2.538188   3.050471
     8  O    3.587007   4.906882   3.147383   3.870187   3.282132
     9  O    3.149584   4.245592   2.258111   3.160462   3.813583
    10  H    3.748843   5.114032   3.697296   3.609749   3.373153
    11  H    3.337269   4.473210   3.754473   2.307342   3.535261
    12  H    2.789287   3.902297   2.304749   2.412017   3.533696
                    6          7          8          9         10
     6  S    0.000000
     7  O    1.561988   0.000000
     8  O    1.483210   2.645399   0.000000
     9  O    2.426330   3.166654   2.453436   0.000000
    10  H    1.324468   1.628237   1.287830   2.901312   0.000000
    11  H    2.259534   1.000089   3.354753   3.150686   2.449550
    12  H    2.205776   2.535664   2.753452   0.985326   2.784566
                   11         12
    11  H    0.000000
    12  H    2.307683   0.000000
 Symmetry turned off by external request.
 Stoichiometry    CH3F3O4S
 Framework group  C1[X(CH3F3O4S)]
 Deg. of freedom    30
 Full point group                 C1      NOp   1
 Rotational constants (GHZ):           2.2115390           1.1000045           0.9904069
 Standard basis: 6-31G(d) (6D, 7F)
   145 basis functions,   288 primitive gaussians,   145 cartesian basis functions
    42 alpha electrons       42 beta electrons
       nuclear repulsion energy       687.5223595672 Hartrees.
 NAtoms=   12 NActive=   12 NUniq=   12 SFac= 1.00D+00 NAtFMM=   60 NAOKFM=F Big=F
 Integral buffers will be    131072 words long.
 Raffenetti 2 integral format.
 Two-electron integral symmetry is turned off.
 One-electron integrals computed using PRISM.
 NBasis=   145 RedAO= T EigKep=  1.79D-03  NBF=   145
 NBsUse=   145 1.00D-06 EigRej= -1.00D+00 NBFU=   145
 Keep R1 ints in memory in canonical form, NReq=63804720.
 Requested convergence on RMS density matrix=1.00D-08 within 128 cycles.
 Requested convergence on MAX density matrix=1.00D-06.
 Requested convergence on             energy=1.00D-06.
 No special actions if energy rises.
 SCF Done:  E(RB3LYP) =  -1038.00745498     A.U. after    1 cycles
            NFock=  1  Conv=0.20D+01     -V/T= 2.0050
 Calling FoFJK, ICntrl=      2127 FMM=F ISym2X=0 I1Cent= 0 IOpClX= 0 NMat=1 NMatS=1 NMatT=0.
 -------------------------------------------------------------------
 Center     Atomic                   Forces (Hartrees/Bohr)
 Number     Number              X              Y              Z
 -------------------------------------------------------------------
      1        6          -0.070995817   -0.141494473   -0.010835337
      2        9           0.020537622    0.019350908    0.016361650
      3        9          -0.018295334   -0.003659667   -0.004933980
      4        9           0.007912634    0.039015236    0.008136514
      5        8          -0.034637187    0.084004486   -0.006207252
      6       16          -0.137098395   -0.010557669    0.071804802
      7        8           0.028153221    0.027439436   -0.109773457
      8        8           0.091304144    0.005621789    0.054459889
      9        8           0.009654315   -0.037894544   -0.042363334
     10        1           0.113947903   -0.012715320    0.030474115
     11        1          -0.000736370   -0.004562017   -0.004364275
     12        1          -0.009746735    0.035451836   -0.002759335
 -------------------------------------------------------------------
 Cartesian Forces:  Max     0.141494473 RMS     0.053839302
 TRJ-TRJ-TRJ-TRJ-TRJ-TRJ-TRJ-TRJ-TRJ-TRJ-TRJ-TRJ-TRJ-TRJ-TRJ-TRJ-TRJ-TRJ

 ADMP step      1
 Frobenius norm of [F,P] =     3.761234D-02
 Current gradient on entry to l121
 I=    1 X=   7.099581714703D-02 Y=   1.414944727032D-01 Z=   1.083533682706D-02
 I=    2 X=  -2.053762192477D-02 Y=  -1.935090801696D-02 Z=  -1.636164956516D-02
 I=    3 X=   1.829533394524D-02 Y=   3.659666888513D-03 Z=   4.933980324726D-03
 I=    4 X=  -7.912633914479D-03 Y=  -3.901523572230D-02 Z=  -8.136513829129D-03
 I=    5 X=   3.463718746064D-02 Y=  -8.400448566539D-02 Z=   6.207252391786D-03
 I=    6 X=   1.370983947851D-01 Y=   1.055766934339D-02 Z=  -7.180480184898D-02
 I=    7 X=  -2.815322080552D-02 Y=  -2.743943602929D-02 Z=   1.097734565074D-01
 I=    8 X=  -9.130414353343D-02 Y=  -5.621789041055D-03 Z=  -5.445988947790D-02
 I=    9 X=  -9.654314538483D-03 Y=   3.789454428408D-02 Z=   4.236333365506D-02
 I=   10 X=  -1.139479033149D-01 Y=   1.271532010645D-02 Z=  -3.047411476971D-02
 I=   11 X=   7.363698858263D-04 Y=   4.562017436371D-03 Z=   4.364275172019D-03
 I=   12 X=   9.746734807935D-03 Y=  -3.545183628724D-02 Z=   2.759334612672D-03

 Summary information for step      1
 Time (fs)     0.100000
 EKinC      =      0.1015124; EKinPA =      0.0000114; EKinPB =      0.0000114
 EKin       =      0.1015351; EPot   =  -1038.0074550; ETot   =  -1037.9059198
 ETot-EKinP =  -1037.9059426
 Adiabaticity Index =    6.6079D-26
 Total Fictitiious Kinetic Energy =      0.0002274
 Integrand for the Velocity-Velocity Auto-Correlation  Function =   1.888406910722D-01
 Angular momentum
   JX = -0.1566457306D-14  JY =  0.5943783513D-13  JZ = -0.7153615796D-13
 Jtot =  0.9302006197D-13 H-BAR;  J (Quantum Number) =  0.0000000000D+00
 Total energy  -1.037905920D+03  Delta-E   2.448603D-05 A.U.
 Total angular momentum   9.302006D-14  Delta-A   5.376161D-14 h-bar
 Tr(PA)-NA = -7.105D-15
 Tr(PA**2-PA) =  4.263D-14
 Tr[(PA**2-PA)**2] =  4.588D-16
 Cartesian coordinates:
 I=    1 X=  -2.457432804200D+00 Y=  -3.900508539322D-01 Z=  -3.319035822599D-02
 I=    2 X=  -5.042321087723D+00 Y=  -4.825402380391D-01 Z=  -9.195217258829D-02
 I=    3 X=  -1.804361328307D+00 Y=   1.426206581988D+00 Z=   1.673543971156D+00
 I=    4 X=  -1.671774856718D+00 Y=   2.033943847379D-01 Z=  -2.480995304528D+00
 I=    5 X=  -1.419783144643D+00 Y=  -2.713214822230D+00 Z=   5.339113434959D-01
 I=    6 X=   2.122549016338D+00 Y=  -7.170574405834D-01 Z=   1.746288428760D-01
 I=    7 X=   3.009489783972D+00 Y=  -8.296528469621D-01 Z=  -2.638441032244D+00
 I=    8 X=   3.928918543662D+00 Y=  -6.091081690381D-02 Z=   2.214855348596D+00
 I=    9 X=   1.675244640868D+00 Y=   3.782706156215D+00 Z=   9.330409193042D-01
 I=   10 X=   4.617946768933D+00 Y=  -7.447865221934D-01 Z=  -1.677805110302D-02
 I=   11 X=   2.435610405075D+00 Y=   4.282446903143D-01 Z=  -3.926873231231D+00
 I=   12 X=   1.279889966447D+00 Y=   3.245787512166D+00 Z=  -8.054770975328D-01
 MW Cartesian velocity:
 I=    1 X=   4.093871117538D+13 Y=   7.131711192081D+13 Z=   5.533570619039D+13
 I=    2 X=   2.279854038805D+11 Y=  -8.407223543172D+12 Z=  -8.943050089320D+13
 I=    3 X=  -7.543516688931D+13 Y=   5.405985637021D+13 Z=  -2.966914326858D+13
 I=    4 X=  -9.806703037973D+13 Y=  -4.370084148072D+13 Z=  -1.869501886600D+13
 I=    5 X=   5.385340659445D+12 Y=  -7.056391072576D+13 Z=   5.464089593944D+13
 I=    6 X=   1.404302854187D+13 Y=  -9.483218399636D+13 Z=  -4.447455365995D+12
 I=    7 X=  -1.029872157521D+14 Y=   4.539072251247D+13 Z=   4.998340849751D+13
 I=    8 X=   8.810539992952D+13 Y=   1.218789327760D+12 Z=  -6.668432833758D+13
 I=    9 X=   1.686963233298D+13 Y=   4.608844212578D+13 Z=   5.558748024609D+13
 I=   10 X=   1.825634000883D+14 Y=   9.558286428288D+13 Z=   3.517641720242D+13
 I=   11 X=   1.795257165820D+14 Y=   6.286074849891D+13 Z=   1.312873794480D+13
 I=   12 X=   1.404929056816D+14 Y=   3.294759262398D+13 Z=   1.147791886445D+13
 TRJ-TRJ-TRJ-TRJ-TRJ-TRJ-TRJ-TRJ-TRJ-TRJ-TRJ-TRJ-TRJ-TRJ-TRJ-TRJ-TRJ-TRJ
                          Input orientation:                          
 ---------------------------------------------------------------------
 Center     Atomic      Atomic             Coordinates (Angstroms)
 Number     Number       Type             X           Y           Z
 ---------------------------------------------------------------------
      1          6           0       -1.299807   -0.205346   -0.016721
      2          9           0       -2.668276   -0.255449   -0.049743
      3          9           0       -0.955745    0.755372    0.885240
      4          9           0       -0.885855    0.107106   -1.313112
      5          8           0       -0.751251   -1.436692    0.283256
      6         16           0        1.123325   -0.380339    0.092374
      7          8           0        1.591195   -0.438429   -1.395558
      8          8           0        2.080274   -0.032215    1.171177
      9          8           0        0.886726    2.002326    0.494473
     10          1           0        2.453616   -0.389116   -0.006948
     11          1           0        1.298332    0.229918   -2.077330
     12          1           0        0.684670    1.719421   -0.425643
 ---------------------------------------------------------------------
                    Distance matrix (angstroms):
                    1          2          3          4          5
     1  C    0.000000
     2  F    1.369784   0.000000
     3  F    1.361944   2.197433   0.000000
     4  F    1.396286   2.214627   2.293008   0.000000
     5  O    1.380983   2.276227   2.282400   2.224819   0.000000
     6  S    2.431891   3.796319   2.498201   2.499959   2.160175
     7  O    3.211450   4.470771   3.621341   2.537751   3.049918
     8  O    3.586924   4.908076   3.149518   3.871566   3.283062
     9  O    3.148977   4.246382   2.258826   3.162477   3.815026
    10  H    3.757932   5.123815   3.705347   3.619995   3.384199
    11  H    3.344531   4.481146   3.759493   2.317279   3.542703
    12  H    2.794654   3.909432   2.310577   2.419443   3.539132
                    6          7          8          9         10
     6  S    0.000000
     7  O    1.560839   0.000000
     8  O    1.483495   2.644303   0.000000
     9  O    2.427911   3.166351   2.453945   0.000000
    10  H    1.334022   1.635372   1.286367   2.902682   0.000000
    11  H    2.260676   0.998634   3.351559   3.150400   2.450381
    12  H    2.206751   2.533542   2.750596   0.983603   2.783955
                   11         12
    11  H    0.000000
    12  H    2.307221   0.000000
 Symmetry turned off by external request.
 Stoichiometry    CH3F3O4S
 Framework group  C1[X(CH3F3O4S)]
 Deg. of freedom    30
 Full point group                 C1      NOp   1
 Rotational constants (GHZ):           2.2110550           1.0995489           0.9900030
 Standard basis: 6-31G(d) (6D, 7F)
   145 basis functions,   288 primitive gaussians,   145 cartesian basis functions
    42 alpha electrons       42 beta electrons
       nuclear repulsion energy       687.3712980903 Hartrees.
 NAtoms=   12 NActive=   12 NUniq=   12 SFac= 1.00D+00 NAtFMM=   60 NAOKFM=F Big=F
 Integral buffers will be    131072 words long.
 Raffenetti 2 integral format.
 Two-electron integral symmetry is turned off.
 One-electron integrals computed using PRISM.
 NBasis=   145 RedAO= T EigKep=  1.79D-03  NBF=   145
 NBsUse=   145 1.00D-06 EigRej= -1.00D+00 NBFU=   145
 Keep R1 ints in memory in canonical form, NReq=63804720.
 Requested convergence on RMS density matrix=1.00D-08 within 128 cycles.
 Requested convergence on MAX density matrix=1.00D-06.
 Requested convergence on             energy=1.00D-06.
 No special actions if energy rises.
 SCF Done:  E(RB3LYP) =  -1038.00863067     A.U. after    1 cycles
            NFock=  1  Conv=0.20D+01     -V/T= 2.0050
 Calling FoFJK, ICntrl=      2127 FMM=F ISym2X=0 I1Cent= 0 IOpClX= 0 NMat=1 NMatS=1 NMatT=0.
 -------------------------------------------------------------------
 Center     Atomic                   Forces (Hartrees/Bohr)
 Number     Number              X              Y              Z
 -------------------------------------------------------------------
      1        6          -0.096191151   -0.174208112   -0.039263150
      2        9           0.023325813    0.025964206    0.030488687
      3        9          -0.006233462    0.000633636    0.002150754
      4        9           0.020420475    0.045009266    0.013182046
      5        8          -0.035232854    0.096312573   -0.004998233
      6       16          -0.123493765    0.002937839    0.076700904
      7        8           0.036070668    0.024836654   -0.111711928
      8        8           0.086062536    0.002337506    0.054908483
      9        8           0.011981282   -0.038957263   -0.040076150
     10        1           0.102621315   -0.013768206    0.029132816
     11        1          -0.005601373   -0.004729136   -0.005313654
     12        1          -0.013729486    0.033631036   -0.005200575
 -------------------------------------------------------------------
 Cartesian Forces:  Max     0.174208112 RMS     0.057427700
 TRJ-TRJ-TRJ-TRJ-TRJ-TRJ-TRJ-TRJ-TRJ-TRJ-TRJ-TRJ-TRJ-TRJ-TRJ-TRJ-TRJ-TRJ

 ADMP step      2
 Frobenius norm of [F,P] =     6.253460D-02
 Current gradient on entry to l121
 I=    1 X=   9.619115098546D-02 Y=   1.742081124579D-01 Z=   3.926315008210D-02
 I=    2 X=  -2.332581339621D-02 Y=  -2.596420630538D-02 Z=  -3.048868672223D-02
 I=    3 X=   6.233461608059D-03 Y=  -6.336356328447D-04 Z=  -2.150754376441D-03
 I=    4 X=  -2.042047475499D-02 Y=  -4.500926647246D-02 Z=  -1.318204562573D-02
 I=    5 X=   3.523285384146D-02 Y=  -9.631257317930D-02 Z=   4.998233009659D-03
 I=    6 X=   1.234937645459D-01 Y=  -2.937839126551D-03 Z=  -7.670090353742D-02
 I=    7 X=  -3.607066845183D-02 Y=  -2.483665443487D-02 Z=   1.117119277416D-01
 I=    8 X=  -8.606253615836D-02 Y=  -2.337506290170D-03 Z=  -5.490848277232D-02
 I=    9 X=  -1.198128216983D-02 Y=   3.895726284329D-02 Z=   4.007614974038D-02
 I=   10 X=  -1.026213147848D-01 Y=   1.376820586557D-02 Z=  -2.913281634462D-02
 I=   11 X=   5.601372868949D-03 Y=   4.729136480776D-03 Z=   5.313654181263D-03
 I=   12 X=   1.372948586644D-02 Y=  -3.363103620618D-02 Z=   5.200574623719D-03

 Summary information for step      2
 Time (fs)     0.200000
 EKinC      =      0.1024534; EKinPA =      0.0001535; EKinPB =      0.0001535
 EKin       =      0.1027604; EPot   =  -1038.0086307; ETot   =  -1037.9058703
 ETot-EKinP =  -1037.9061773
 Adiabaticity Index =    3.8356D-04
 Integrand for the Velocity-Velocity Auto-Correlation  Function =   1.894550118190D-01
 Angular momentum
   JX =  0.3497288556D-14  JY =  0.8640593464D-13  JZ = -0.3006309776D-13
 Jtot =  0.9155329822D-13 H-BAR;  J (Quantum Number) =  0.0000000000D+00
 Total energy  -1.037905870D+03  Delta-E   4.951121D-05 A.U.
 Total angular momentum   9.155330D-14  Delta-A  -1.466764D-15 h-bar
 Tr(PA)-NA = -7.105D-15
 Tr(PA**2-PA) = -8.808D-11
 Tr[(PA**2-PA)**2] =  3.126D-13
 Cartesian coordinates:
 I=    1 X=  -2.456278735289D+00 Y=  -3.880474489224D-01 Z=  -3.159726775091D-02
 I=    2 X=  -5.042310782686D+00 Y=  -4.827284410451D-01 Z=  -9.400001526095D-02
 I=    3 X=  -1.806096595377D+00 Y=   1.427446002023D+00 Z=   1.672861947627D+00
 I=    4 X=  -1.674022751914D+00 Y=   2.024012590331D-01 Z=  -2.481422266118D+00
 I=    5 X=  -1.419658602513D+00 Y=  -2.714954573340D+00 Z=   5.352758696759D-01
 I=    6 X=   2.122777273038D+00 Y=  -7.187360989947D-01 Z=   1.745607697869D-01
 I=    7 X=   3.006923044454D+00 Y=  -8.285099295604D-01 Z=  -2.637223279485D+00
 I=    8 X=   3.931148212263D+00 Y=  -6.087846921045D-02 Z=   2.213204065033D+00
 I=    9 X=   1.675669154940D+00 Y=   3.783847544332D+00 Z=   9.344182461136D-01
 I=   10 X=   4.636662311870D+00 Y=  -7.353227561242D-01 Z=  -1.312933188168D-02
 I=   11 X=   2.453491494576D+00 Y=   4.344825535216D-01 Z=  -3.925584945653D+00
 I=   12 X=   1.293838407573D+00 Y=   3.249234231209D+00 Z=  -8.043489393790D-01
 MW Cartesian velocity:
 I=    1 X=   3.867671468449D+13 Y=   6.703850946381D+13 Z=   5.465033285764D+13
 I=    2 X=   7.005689268129D+11 Y=  -7.931068390524D+12 Z=  -8.894017347198D+13
 I=    3 X=  -7.570813452277D+13 Y=   5.403350245521D+13 Z=  -2.971318490912D+13
 I=    4 X=  -9.775546070892D+13 Y=  -4.281419841596D+13 Z=  -1.847247748562D+13
 I=    5 X=   4.570626900007D+12 Y=  -6.844962321119D+13 Z=   5.452110233657D+13
 I=    6 X=   1.188291323936D+13 Y=  -9.489021558810D+13 Z=  -3.208110504051D+12
 I=    7 X=  -1.022238407427D+14 Y=   4.599558038547D+13 Z=   4.740246353249D+13
 I=    8 X=   9.017628741629D+13 Y=   1.336460255851D+12 Z=  -6.538867464606D+13
 I=    9 X=   1.710995101051D+13 Y=   4.519846166011D+13 Z=   5.460326643168D+13
 I=   10 X=   1.926815084331D+14 Y=   9.439535334992D+13 Z=   3.804068731311D+13
 I=   11 X=   1.792771092191D+14 Y=   6.235810741566D+13 Z=   1.269869345070D+13
 I=   12 X=   1.393730025215D+14 Y=   3.617012090059D+13 Z=   1.104280490861D+13
 TRJ-TRJ-TRJ-TRJ-TRJ-TRJ-TRJ-TRJ-TRJ-TRJ-TRJ-TRJ-TRJ-TRJ-TRJ-TRJ-TRJ-TRJ
                          Input orientation:                          
 ---------------------------------------------------------------------
 Center     Atomic      Atomic             Coordinates (Angstroms)
 Number     Number       Type             X           Y           Z
 ---------------------------------------------------------------------
      1          6           0       -1.299236   -0.204358   -0.015894
      2          9           0       -2.668264   -0.255542   -0.050819
      3          9           0       -0.956665    0.756028    0.884880
      4          9           0       -0.887039    0.106592   -1.313335
      5          8           0       -0.751196   -1.437583    0.283977
      6         16           0        1.123427   -0.381227    0.092350
      7          8           0        1.589848   -0.437816   -1.394948
      8          8           0        2.081480   -0.032197    1.170321
      9          8           0        0.886954    2.002918    0.495189
     10          1           0        2.464025   -0.384173   -0.004868
     11          1           0        1.307770    0.233191   -2.076673
     12          1           0        0.691982    1.721410   -0.425076
 ---------------------------------------------------------------------
                    Distance matrix (angstroms):
                    1          2          3          4          5
     1  C    0.000000
     2  F    1.370430   0.000000
     3  F    1.360547   2.197357   0.000000
     4  F    1.396406   2.213109   2.293199   0.000000
     5  O    1.382430   2.276941   2.283688   2.225833   0.000000
     6  S    2.431521   3.796474   2.499647   2.501177   2.160283
     7  O    3.209844   4.468941   3.620444   2.537324   3.049395
     8  O    3.586919   4.909291   3.151683   3.872972   3.284017
     9  O    3.148444   4.247157   2.259541   3.164468   3.816437
    10  H    3.767571   5.134107   3.713870   3.630780   3.395696
    11  H    3.351826   4.489075   3.764548   2.327208   3.550140
    12  H    2.800171   3.916588   2.316459   2.426921   3.544680
                    6          7          8          9         10
     6  S    0.000000
     7  O    1.559746   0.000000
     8  O    1.483816   2.643262   0.000000
     9  O    2.429474   3.166048   2.454463   0.000000
    10  H    1.344122   1.642981   1.285028   2.904378   0.000000
    11  H    2.261891   0.997280   3.348437   3.150158   2.451620
    12  H    2.207930   2.531615   2.747933   0.981911   2.783916
                   11         12
    11  H    0.000000
    12  H    2.306895   0.000000
 Symmetry turned off by external request.
 Stoichiometry    CH3F3O4S
 Framework group  C1[X(CH3F3O4S)]
 Deg. of freedom    30
 Full point group                 C1      NOp   1
 Rotational constants (GHZ):           2.2105619           1.0990788           0.9895904
 Standard basis: 6-31G(d) (6D, 7F)
   145 basis functions,   288 primitive gaussians,   145 cartesian basis functions
    42 alpha electrons       42 beta electrons
       nuclear repulsion energy       687.2135027999 Hartrees.
 NAtoms=   12 NActive=   12 NUniq=   12 SFac= 1.00D+00 NAtFMM=   60 NAOKFM=F Big=F
 Integral buffers will be    131072 words long.
 Raffenetti 2 integral format.
 Two-electron integral symmetry is turned off.
 One-electron integrals computed using PRISM.
 NBasis=   145 RedAO= T EigKep=  1.79D-03  NBF=   145
 NBsUse=   145 1.00D-06 EigRej= -1.00D+00 NBFU=   145
 Keep R1 ints in memory in canonical form, NReq=63804720.
 Requested convergence on RMS density matrix=1.00D-08 within 128 cycles.
 Requested convergence on MAX density matrix=1.00D-06.
 Requested convergence on             energy=1.00D-06.
 No special actions if energy rises.
 SCF Done:  E(RB3LYP) =  -1038.01007292     A.U. after    1 cycles
            NFock=  1  Conv=0.20D+01     -V/T= 2.0050
 Calling FoFJK, ICntrl=      2127 FMM=F ISym2X=0 I1Cent= 0 IOpClX= 0 NMat=1 NMatS=1 NMatT=0.
 -------------------------------------------------------------------
 Center     Atomic                   Forces (Hartrees/Bohr)
 Number     Number              X              Y              Z
 -------------------------------------------------------------------
      1        6          -0.103083068   -0.182906465   -0.047254987
      2        9           0.025278330    0.027129027    0.033440806
      3        9          -0.002859679    0.002673766    0.005934068
      4        9           0.022859987    0.046654429    0.014205464
      5        8          -0.035891412    0.099815692   -0.004692856
      6       16          -0.112278392    0.008605465    0.078739033
      7        8           0.041344023    0.023045556   -0.112371357
      8        8           0.082765621    0.000366913    0.054866393
      9        8           0.013679823   -0.038989238   -0.038307214
     10        1           0.092885061   -0.014019436    0.028505160
     11        1          -0.008650480   -0.004712023   -0.006040061
     12        1          -0.016049814    0.032336316   -0.007024449
 -------------------------------------------------------------------
 Cartesian Forces:  Max     0.182906465 RMS     0.057960323
 TRJ-TRJ-TRJ-TRJ-TRJ-TRJ-TRJ-TRJ-TRJ-TRJ-TRJ-TRJ-TRJ-TRJ-TRJ-TRJ-TRJ-TRJ

 ADMP step      3
 Frobenius norm of [F,P] =     6.863792D-02
 Current gradient on entry to l121
 I=    1 X=   1.030830682276D-01 Y=   1.829064652155D-01 Z=   4.725498736246D-02
 I=    2 X=  -2.527833035791D-02 Y=  -2.712902657206D-02 Z=  -3.344080613185D-02
 I=    3 X=   2.859678564501D-03 Y=  -2.673765542802D-03 Z=  -5.934068457346D-03
 I=    4 X=  -2.285998679443D-02 Y=  -4.665442877695D-02 Z=  -1.420546444112D-02
 I=    5 X=   3.589141211704D-02 Y=  -9.981569232007D-02 Z=   4.692855608430D-03
 I=    6 X=   1.122783923576D-01 Y=  -8.605465359381D-03 Z=  -7.873903326173D-02
 I=    7 X=  -4.134402325798D-02 Y=  -2.304555555245D-02 Z=   1.123713572920D-01
 I=    8 X=  -8.276562096172D-02 Y=  -3.669125210561D-04 Z=  -5.486639255287D-02
 I=    9 X=  -1.367982329823D-02 Y=   3.898923794263D-02 Z=   3.830721434654D-02
 I=   10 X=  -9.288506074881D-02 Y=   1.401943608812D-02 Z=  -2.850516000581D-02
 I=   11 X=   8.650480012754D-03 Y=   4.712023338588D-03 Z=   6.040060955524D-03
 I=   12 X=   1.604981413959D-02 Y=  -3.233631593987D-02 Z=   7.024449286035D-03

 Summary information for step      3
 Time (fs)     0.300000
 EKinC      =      0.1030500; EKinPA =      0.0005897; EKinPB =      0.0005897
 EKin       =      0.1042295; EPot   =  -1038.0100729; ETot   =  -1037.9058434
 ETot-EKinP =  -1037.9070229
 Adiabaticity Index =    1.7592D-03
 Integrand for the Velocity-Velocity Auto-Correlation  Function =   1.895902764051D-01
 Angular momentum
   JX =  0.1872867258D-14  JY =  0.7984248504D-13  JZ = -0.4194236730D-13
 Jtot =  0.9020804966D-13 H-BAR;  J (Quantum Number) =  0.0000000000D+00
 Total energy  -1.037905843D+03  Delta-E   2.688424D-05 A.U.
 Total angular momentum   9.020805D-14  Delta-A  -1.345249D-15 h-bar
 Tr(PA)-NA =  0.000D+00
 Tr(PA**2-PA) = -1.488D-10
 Tr[(PA**2-PA)**2] =  5.286D-13
 Cartesian coordinates:
 I=    1 X=  -2.455199803037D+00 Y=  -3.861803837837D-01 Z=  -3.003511978732D-02
 I=    2 X=  -5.042288942065D+00 Y=  -4.829041557062D-01 Z=  -9.603319910908D-02
 I=    3 X=  -1.807835201729D+00 Y=   1.428685913295D+00 Z=   1.672180579441D+00
 I=    4 X=  -1.676260373354D+00 Y=   2.014298520370D-01 Z=  -2.481842915541D+00
 I=    5 X=  -1.419554576972D+00 Y=  -2.716637847412D+00 Z=   5.366378319339D-01
 I=    6 X=   2.122969324218D+00 Y=  -7.204137812823D-01 Z=   1.745153695133D-01
 I=    7 X=   3.004377779484D+00 Y=  -8.273527023806D-01 Z=  -2.636070532324D+00
 I=    8 X=   3.933428074734D+00 Y=  -6.084398326914D-02 Z=   2.211585395170D+00
 I=    9 X=   1.676100274404D+00 Y=   3.784966438525D+00 Z=   9.357715166000D-01
 I=   10 X=   4.656333175755D+00 Y=  -7.259808855487D-01 Z=  -9.199507054610D-03
 I=   11 X=   2.471326359886D+00 Y=   4.406678008626D-01 Z=  -3.924343371376D+00
 I=   12 X=   1.307656142964D+00 Y=   3.252993398123D+00 Z=  -8.032771272029D-01
 MW Cartesian velocity:
 I=    1 X=   3.598075433525D+13 Y=   6.219727942657D+13 Z=   5.347027620977D+13
 I=    2 X=   1.224501198644D+12 Y=  -7.375217848279D+12 Z=  -8.826971956213D+13
 I=    3 X=  -7.581783476655D+13 Y=   5.407729232164D+13 Z=  -2.964470558383D+13
 I=    4 X=  -9.728118615440D+13 Y=  -4.185125934114D+13 Z=  -1.818654263001D+13
 I=    5 X=   3.742925408885D+12 Y=  -6.614982633516D+13 Z=   5.442339271194D+13
 I=    6 X=   9.928811207578D+12 Y=  -9.478760964642D+13 Z=  -1.908736100175D+12
 I=    7 X=  -1.013026949705D+14 Y=   4.654629394807D+13 Z=   4.479571882869D+13
 I=    8 X=   9.214487009412D+13 Y=   1.400868620550D+12 Z=  -6.408429101347D+13
 I=    9 X=   1.739312425605D+13 Y=   4.429935435184D+13 Z=   5.366028806482D+13
 I=   10 X=   2.018179922063D+14 Y=   9.316430704424D+13 Z=   4.083717478043D+13
 I=   11 X=   1.786720614189D+14 Y=   6.182547867297D+13 Z=   1.219638295493D+13
 I=   12 X=   1.379500771525D+14 Y=   3.924620606142D+13 Z=   1.038650297810D+13
 TRJ-TRJ-TRJ-TRJ-TRJ-TRJ-TRJ-TRJ-TRJ-TRJ-TRJ-TRJ-TRJ-TRJ-TRJ-TRJ-TRJ-TRJ
                          Input orientation:                          
 ---------------------------------------------------------------------
 Center     Atomic      Atomic             Coordinates (Angstroms)
 Number     Number       Type             X           Y           Z
 ---------------------------------------------------------------------
      1          6           0       -1.298707   -0.203446   -0.015087
      2          9           0       -2.668246   -0.255628   -0.051886
      3          9           0       -0.957586    0.756685    0.884521
      4          9           0       -0.888217    0.106090   -1.313554
      5          8           0       -0.751152   -1.438443    0.284696
      6         16           0        1.123511   -0.382113    0.092338
      7          8           0        1.588514   -0.437197   -1.394373
      8          8           0        2.082712   -0.032178    1.169481
      9          8           0        0.887186    2.003498    0.495893
     10          1           0        2.474892   -0.379294   -0.002643
     11          1           0        1.317168    0.236436   -2.076044
     12          1           0        0.699213    1.723558   -0.424548
 ---------------------------------------------------------------------
                    Distance matrix (angstroms):
                    1          2          3          4          5
     1  C    0.000000
     2  F    1.371026   0.000000
     3  F    1.359231   2.197269   0.000000
     4  F    1.396542   2.211594   2.293385   0.000000
     5  O    1.383801   2.277628   2.284949   2.226830   0.000000
     6  S    2.431174   3.796607   2.501076   2.502383   2.160369
     7  O    3.208289   4.467130   3.619577   2.536906   3.048902
     8  O    3.586995   4.910527   3.153874   3.874403   3.284998
     9  O    3.147989   4.247919   2.260257   3.166435   3.817815
    10  H    3.777715   5.144861   3.722824   3.642058   3.407598
    11  H    3.359144   4.496985   3.769630   2.337115   3.557564
    12  H    2.805831   3.923753   2.322388   2.434434   3.550329
                    6          7          8          9         10
     6  S    0.000000
     7  O    1.558708   0.000000
     8  O    1.484170   2.642276   0.000000
     9  O    2.431018   3.165748   2.454992   0.000000
    10  H    1.354718   1.651040   1.283810   2.906381   0.000000
    11  H    2.263181   0.996035   3.345392   3.149961   2.453252
    12  H    2.209310   2.529877   2.745471   0.980261   2.784426
                   11         12
    11  H    0.000000
    12  H    2.306695   0.000000
 Symmetry turned off by external request.
 Stoichiometry    CH3F3O4S
 Framework group  C1[X(CH3F3O4S)]
 Deg. of freedom    30
 Full point group                 C1      NOp   1
 Rotational constants (GHZ):           2.2100597           1.0985944           0.9891693
 Standard basis: 6-31G(d) (6D, 7F)
   145 basis functions,   288 primitive gaussians,   145 cartesian basis functions
    42 alpha electrons       42 beta electrons
       nuclear repulsion energy       687.0493740460 Hartrees.
 NAtoms=   12 NActive=   12 NUniq=   12 SFac= 1.00D+00 NAtFMM=   60 NAOKFM=F Big=F
 Integral buffers will be    131072 words long.
 Raffenetti 2 integral format.
 Two-electron integral symmetry is turned off.
 One-electron integrals computed using PRISM.
 NBasis=   145 RedAO= T EigKep=  1.80D-03  NBF=   145
 NBsUse=   145 1.00D-06 EigRej= -1.00D+00 NBFU=   145
 Keep R1 ints in memory in canonical form, NReq=63804720.
 Requested convergence on RMS density matrix=1.00D-08 within 128 cycles.
 Requested convergence on MAX density matrix=1.00D-06.
 Requested convergence on             energy=1.00D-06.
 No special actions if energy rises.
 SCF Done:  E(RB3LYP) =  -1038.01202299     A.U. after    1 cycles
            NFock=  1  Conv=0.20D+01     -V/T= 2.0050
 Calling FoFJK, ICntrl=      2127 FMM=F ISym2X=0 I1Cent= 0 IOpClX= 0 NMat=1 NMatS=1 NMatT=0.
 -------------------------------------------------------------------
 Center     Atomic                   Forces (Hartrees/Bohr)
 Number     Number              X              Y              Z
 -------------------------------------------------------------------
      1        6          -0.091472488   -0.167175661   -0.034318507
      2        9           0.025989539    0.022739343    0.025331645
      3        9          -0.008257110    0.002100346    0.005677961
      4        9           0.015603145    0.043745628    0.011364171
      5        8          -0.036623165    0.094541779   -0.005433221
      6       16          -0.104477297    0.005852852    0.077718328
      7        8           0.043418861    0.022236102   -0.111859333
      8        8           0.082028927    0.000002428    0.054399262
      9        8           0.014491183   -0.037986140   -0.037158863
     10        1           0.085182590   -0.013288408    0.028835632
     11        1          -0.009507019   -0.004484890   -0.006468307
     12        1          -0.016377164    0.031716621   -0.008088766
 -------------------------------------------------------------------
 Cartesian Forces:  Max     0.167175661 RMS     0.054361651
 TRJ-TRJ-TRJ-TRJ-TRJ-TRJ-TRJ-TRJ-TRJ-TRJ-TRJ-TRJ-TRJ-TRJ-TRJ-TRJ-TRJ-TRJ

 ADMP step      4
 Frobenius norm of [F,P] =     6.017008D-02
 Current gradient on entry to l121
 I=    1 X=   9.147248811311D-02 Y=   1.671756607258D-01 Z=   3.431850705115D-02
 I=    2 X=  -2.598953861436D-02 Y=  -2.273934299095D-02 Z=  -2.533164524125D-02
 I=    3 X=   8.257110486319D-03 Y=  -2.100346295574D-03 Z=  -5.677960908116D-03
 I=    4 X=  -1.560314483914D-02 Y=  -4.374562844074D-02 Z=  -1.136417070435D-02
 I=    5 X=   3.662316529168D-02 Y=  -9.454177863648D-02 Z=   5.433221383343D-03
 I=    6 X=   1.044772969238D-01 Y=  -5.852851949639D-03 Z=  -7.771832797832D-02
 I=    7 X=  -4.341886117725D-02 Y=  -2.223610164148D-02 Z=   1.118593330538D-01
 I=    8 X=  -8.202892676887D-02 Y=  -2.427703578167D-06 Z=  -5.439926152235D-02
 I=    9 X=  -1.449118252612D-02 Y=   3.798613968075D-02 Z=   3.715886327594D-02
 I=   10 X=  -8.518259045104D-02 Y=   1.328840768506D-02 Z=  -2.883563168600D-02
 I=   11 X=   9.507019332085D-03 Y=   4.484890399629D-03 Z=   6.468306818731D-03
 I=   12 X=   1.637716422984D-02 Y=  -3.171662083271D-02 Z=   8.088766457467D-03

 Summary information for step      4
 Time (fs)     0.400000
 EKinC      =      0.1035964; EKinPA =      0.0012889; EKinPB =      0.0012889
 EKin       =      0.1061742; EPot   =  -1038.0120230; ETot   =  -1037.9058488
 ETot-EKinP =  -1037.9084266
 Adiabaticity Index =    3.3710D-03
 Integrand for the Velocity-Velocity Auto-Correlation  Function =   1.895481863127D-01
 Angular momentum
   JX = -0.8000523847D-14  JY =  0.9529293243D-13  JZ = -0.3557052868D-13
 Jtot =  0.1020294755D-12 H-BAR;  J (Quantum Number) =  0.0000000000D+00
 Total energy  -1.037905849D+03  Delta-E  -5.362319D-06 A.U.
 Total angular momentum   1.020295D-13  Delta-A   1.182143D-14 h-bar
 Tr(PA)-NA =  2.842D-14
 Tr(PA**2-PA) = -1.650D-10
 Tr[(PA**2-PA)**2] =  5.861D-13
 Cartesian coordinates:
 I=    1 X=  -2.454201385469D+00 Y=  -3.844564873204D-01 Z=  -2.851015991458D-02
 I=    2 X=  -5.042254596356D+00 Y=  -4.830668534684D-01 Z=  -9.805027795388D-02
 I=    3 X=  -1.809575502403D+00 Y=   1.429927342631D+00 Z=   1.671501698091D+00
 I=    4 X=  -1.678486506426D+00 Y=   2.004809108638D-01 Z=  -2.482256756989D+00
 I=    5 X=  -1.419471426495D+00 Y=  -2.718262590400D+00 Z=   5.379974718561D-01
 I=    6 X=   2.123128462809D+00 Y=  -7.220888104417D-01 Z=   1.744932563070D-01
 I=    7 X=   3.001857104575D+00 Y=  -8.261822449238D-01 Z=  -2.634983137518D+00
 I=    8 X=   3.935756188114D+00 Y=  -6.080841464564D-02 Z=   2.209999341155D+00
 I=    9 X=   1.676538949389D+00 Y=   3.786062864131D+00 Z=   9.371016869964D-01
 I=   10 X=   4.676868907800D+00 Y=  -7.167623710591D-01 Z=  -4.993665842347D-03
 I=   11 X=   2.489086910519D+00 Y=   4.467995526751D-01 Z=  -3.923155157130D+00
 I=   12 X=   1.321321105969D+00 Y=   3.257052941184D+00 Z=  -8.022797188709D-01
 MW Cartesian velocity:
 I=    1 X=   3.334883059534D+13 Y=   5.745136634990D+13 Z=   5.235904042103D+13
 I=    2 X=   1.777200815979D+12 Y=  -6.853786605240D+12 Z=  -8.765180507959D+13
 I=    3 X=  -7.594809968600D+13 Y=   5.413656514819D+13 Z=  -2.953676817772D+13
 I=    4 X=  -9.685987573385D+13 Y=  -4.090136706574D+13 Z=  -1.791894537935D+13
 I=    5 X=   2.899274573466D+12 Y=  -6.387085824686D+13 Z=   5.432112191203D+13
 I=    6 X=   8.132562429489D+12 Y=  -9.466100829595D+13 Z=  -6.017330552582D+11
 I=    7 X=  -1.002968469266D+14 Y=   4.706684367984D+13 Z=   4.218552312607D+13
 I=    8 X=   9.406770882405D+13 Y=   1.437082959497D+12 Z=  -6.278795930879D+13
 I=    9 X=   1.770673829389D+13 Y=   4.341125980293D+13 Z=   5.275160932751D+13
 I=   10 X=   2.101405920869D+14 Y=   9.195453768712D+13 Z=   4.360916064089D+13
 I=   11 X=   1.778761425818D+14 Y=   6.130705849156D+13 Z=   1.163582952168D+13
 I=   12 X=   1.364032589346D+14 Y=   4.223320570457D+13 Z=   9.596269726135D+12
 TRJ-TRJ-TRJ-TRJ-TRJ-TRJ-TRJ-TRJ-TRJ-TRJ-TRJ-TRJ-TRJ-TRJ-TRJ-TRJ-TRJ-TRJ
                          Input orientation:                          
 ---------------------------------------------------------------------
 Center     Atomic      Atomic             Coordinates (Angstroms)
 Number     Number       Type             X           Y           Z
 ---------------------------------------------------------------------
      1          6           0       -1.298217   -0.202603   -0.014294
      2          9           0       -2.668221   -0.255708   -0.052947
      3          9           0       -0.958509    0.757343    0.884163
      4          9           0       -0.889391    0.105599   -1.313770
      5          8           0       -0.751119   -1.439273    0.285414
      6         16           0        1.123579   -0.382998    0.092338
      7          8           0        1.587194   -0.436571   -1.393832
      8          8           0        2.083970   -0.032159    1.168659
      9          8           0        0.887423    2.004067    0.496585
     10          1           0        2.486179   -0.374478   -0.000271
     11          1           0        1.326522    0.239655   -2.075446
     12          1           0        0.706362    1.725862   -0.424064
 ---------------------------------------------------------------------
                    Distance matrix (angstroms):
                    1          2          3          4          5
     1  C    0.000000
     2  F    1.371578   0.000000
     3  F    1.357984   2.197171   0.000000
     4  F    1.396697   2.210080   2.293568   0.000000
     5  O    1.385097   2.278287   2.286183   2.227810   0.000000
     6  S    2.430845   3.796717   2.502490   2.503580   2.160437
     7  O    3.206784   4.465338   3.618742   2.536500   3.048440
     8  O    3.587146   4.911783   3.156094   3.875862   3.286004
     9  O    3.147603   4.248667   2.260974   3.168380   3.819162
    10  H    3.788323   5.156038   3.732174   3.653796   3.419869
    11  H    3.366481   4.504871   3.774739   2.346996   3.564976
    12  H    2.811623   3.930924   2.328365   2.441978   3.556078
                    6          7          8          9         10
     6  S    0.000000
     7  O    1.557726   0.000000
     8  O    1.484555   2.641344   0.000000
     9  O    2.432543   3.165449   2.455529   0.000000
    10  H    1.365770   1.659531   1.282713   2.908671   0.000000
    11  H    2.264547   0.994901   3.342429   3.149810   2.455263
    12  H    2.210890   2.528326   2.743212   0.978660   2.785459
                   11         12
    11  H    0.000000
    12  H    2.306615   0.000000
 Symmetry turned off by external request.
 Stoichiometry    CH3F3O4S
 Framework group  C1[X(CH3F3O4S)]
 Deg. of freedom    30
 Full point group                 C1      NOp   1
 Rotational constants (GHZ):           2.2095476           1.0980959           0.9887399
 Standard basis: 6-31G(d) (6D, 7F)
   145 basis functions,   288 primitive gaussians,   145 cartesian basis functions
    42 alpha electrons       42 beta electrons
       nuclear repulsion energy       686.8791951869 Hartrees.
 NAtoms=   12 NActive=   12 NUniq=   12 SFac= 1.00D+00 NAtFMM=   60 NAOKFM=F Big=F
 Integral buffers will be    131072 words long.
 Raffenetti 2 integral format.
 Two-electron integral symmetry is turned off.
 One-electron integrals computed using PRISM.
 NBasis=   145 RedAO= T EigKep=  1.80D-03  NBF=   145
 NBsUse=   145 1.00D-06 EigRej= -1.00D+00 NBFU=   145
 Keep R1 ints in memory in canonical form, NReq=63804720.
 Requested convergence on RMS density matrix=1.00D-08 within 128 cycles.
 Requested convergence on MAX density matrix=1.00D-06.
 Requested convergence on             energy=1.00D-06.
 No special actions if energy rises.
 SCF Done:  E(RB3LYP) =  -1038.01426713     A.U. after    1 cycles
            NFock=  1  Conv=0.20D+01     -V/T= 2.0050
 Calling FoFJK, ICntrl=      2127 FMM=F ISym2X=0 I1Cent= 0 IOpClX= 0 NMat=1 NMatS=1 NMatT=0.
 -------------------------------------------------------------------
 Center     Atomic                   Forces (Hartrees/Bohr)
 Number     Number              X              Y              Z
 -------------------------------------------------------------------
      1        6          -0.067503890   -0.134291887   -0.007356778
      2        9           0.025052080    0.014446675    0.010295701
      3        9          -0.019500839   -0.000795337    0.001832883
      4        9           0.002581407    0.037397911    0.006242211
      5        8          -0.037313179    0.083380352   -0.006989334
      6       16          -0.100264468   -0.003454577    0.074349937
      7        8           0.042425016    0.022311930   -0.110604154
      8        8           0.083875808    0.001155666    0.053646003
      9        8           0.014287216   -0.036253230   -0.036523134
     10        1           0.079500494   -0.011605228    0.030185468
     11        1          -0.008294695   -0.004023397   -0.006602119
     12        1          -0.014844949    0.031731122   -0.008476683
 -------------------------------------------------------------------
 Cartesian Forces:  Max     0.134291887 RMS     0.048732208
 TRJ-TRJ-TRJ-TRJ-TRJ-TRJ-TRJ-TRJ-TRJ-TRJ-TRJ-TRJ-TRJ-TRJ-TRJ-TRJ-TRJ-TRJ

 ADMP step      5
 Frobenius norm of [F,P] =     5.155470D-02
 Current gradient on entry to l121
 I=    1 X=   6.750389049539D-02 Y=   1.342918872594D-01 Z=   7.356778322658D-03
 I=    2 X=  -2.505208010374D-02 Y=  -1.444667500694D-02 Z=  -1.029570094263D-02
 I=    3 X=   1.950083918940D-02 Y=   7.953372649325D-04 Z=  -1.832882977602D-03
 I=    4 X=  -2.581406751504D-03 Y=  -3.739791111199D-02 Z=  -6.242211437229D-03
 I=    5 X=   3.731317921929D-02 Y=  -8.338035215134D-02 Z=   6.989334480902D-03
 I=    6 X=   1.002644683846D-01 Y=   3.454576942630D-03 Z=  -7.434993696366D-02
 I=    7 X=  -4.242501625816D-02 Y=  -2.231192959453D-02 Z=   1.106041541908D-01
 I=    8 X=  -8.387580796369D-02 Y=  -1.155665930671D-03 Z=  -5.364600276401D-02
 I=    9 X=  -1.428721551657D-02 Y=   3.625322959180D-02 Z=   3.652313394256D-02
 I=   10 X=  -7.950049398106D-02 Y=   1.160522788557D-02 Z=  -3.018546766840D-02
 I=   11 X=   8.294694590366D-03 Y=   4.023396582880D-03 Z=   6.602118723819D-03
 I=   12 X=   1.484494869579D-02 Y=  -3.173112173179D-02 Z=   8.476683092880D-03

 Summary information for step      5
 Time (fs)     0.500000
 EKinC      =      0.1043525; EKinPA =      0.0020262; EKinPB =      0.0020262
 EKin       =      0.1084049; EPot   =  -1038.0142671; ETot   =  -1037.9058622
 ETot-EKinP =  -1037.9099146
 Adiabaticity Index =    4.0509D-03
 Integrand for the Velocity-Velocity Auto-Correlation  Function =   1.896090013579D-01
 Angular momentum
   JX = -0.1486781805D-13  JY =  0.1326649941D-12  JZ = -0.4897955869D-14
 Jtot =  0.1335853385D-12 H-BAR;  J (Quantum Number) =  0.0000000000D+00
 Total energy  -1.037905862D+03  Delta-E  -1.340074D-05 A.U.
 Total angular momentum   1.335853D-13  Delta-A   3.155586D-14 h-bar
 Tr(PA)-NA = -2.132D-14
 Tr(PA**2-PA) = -1.371D-10
 Tr[(PA**2-PA)**2] =  4.872D-13
 Cartesian coordinates:
 I=    1 X=  -2.453274407405D+00 Y=  -3.828634276010D-01 Z=  -2.701216917916D-02
 I=    2 X=  -5.042207395073D+00 Y=  -4.832186422179D-01 Z=  -1.000551087497D-01
 I=    3 X=  -1.811320085971D+00 Y=   1.431169973641D+00 Z=   1.670825282622D+00
 I=    4 X=  -1.680704796006D+00 Y=   1.995530897460D-01 Z=  -2.482665127691D+00
 I=    5 X=  -1.419409590201D+00 Y=  -2.719831897955D+00 Z=   5.393543197613D-01
 I=    6 X=   2.123256979274D+00 Y=  -7.237620147411D-01 Z=   1.744940857473D-01
 I=    7 X=   2.999362140001D+00 Y=  -8.249989861201D-01 Z=  -2.633960920887D+00
 I=    8 X=   3.938132207803D+00 Y=  -6.077211769956D-02 Z=   2.208445498180D+00
 I=    9 X=   1.676985752048D+00 Y=   3.787137346538D+00 Z=   9.384095163240D-01
 I=   10 X=   4.698197817169D+00 Y=  -7.076615132256D-01 Z=  -5.116002849228D-04
 I=   11 X=   2.506763211240D+00 Y=   4.528815192803D-01 Z=  -3.922025257462D+00
 I=   12 X=   1.334830681049D+00 Y=   3.261407184317D+00 Z=  -8.013653385903D-01
 MW Cartesian velocity:
 I=    1 X=   3.119843265153D+13 Y=   5.336596130961D+13 Z=   5.179308630629D+13
 I=    2 X=   2.327287768820D+12 Y=  -6.464139778836D+12 Z=  -8.727392963830D+13
 I=    3 X=  -7.625243183654D+13 Y=   5.415631432127D+13 Z=  -2.946598606533D+13
 I=    4 X=  -9.666067751569D+13 Y=  -4.004439772772D+13 Z=  -1.773292912013D+13
 I=    5 X=   2.037785963151D+12 Y=  -6.178466235734D+13 Z=   5.418897746234D+13
 I=    6 X=   6.436001056433D+12 Y=  -9.463642762593D+13 Z=   6.649972286814D+11
 I=    7 X=  -9.928406296890D+13 Y=   4.758163653484D+13 Z=   3.958848683067D+13
 I=    8 X=   9.600850541666D+13 Y=   1.473032063583D+12 Z=  -6.151357425636D+13
 I=    9 X=   1.803371588509D+13 Y=   4.255102909539D+13 Z=   5.186985404883D+13
 I=   10 X=   2.178370505698D+14 Y=   9.083771609658D+13 Z=   4.641694004385D+13
 I=   11 X=   1.770686128009D+14 Y=   6.084647803494D+13 Z=   1.103511079749D+13
 I=   12 X=   1.349212611944D+14 Y=   4.519305341482D+13 Z=   8.760152998901D+12
 TRJ-TRJ-TRJ-TRJ-TRJ-TRJ-TRJ-TRJ-TRJ-TRJ-TRJ-TRJ-TRJ-TRJ-TRJ-TRJ-TRJ-TRJ
                          Input orientation:                          
 ---------------------------------------------------------------------
 Center     Atomic      Atomic             Coordinates (Angstroms)
 Number     Number       Type             X           Y           Z
 ---------------------------------------------------------------------
      1          6           0       -1.297754   -0.201815   -0.013505
      2          9           0       -2.668190   -0.255785   -0.054005
      3          9           0       -0.959438    0.758000    0.883805
      4          9           0       -0.890564    0.105118   -1.313984
      5          8           0       -0.751098   -1.440078    0.286130
      6         16           0        1.123632   -0.383884    0.092350
      7          8           0        1.585887   -0.435938   -1.393325
      8          8           0        2.085253   -0.032139    1.167853
      9          8           0        0.887663    2.004624    0.497265
     10          1           0        2.497858   -0.369718    0.002251
     11          1           0        1.335835    0.242851   -2.074881
     12          1           0        0.713437    1.728323   -0.423625
 ---------------------------------------------------------------------
                    Distance matrix (angstroms):
                    1          2          3          4          5
     1  C    0.000000
     2  F    1.372096   0.000000
     3  F    1.356786   2.197062   0.000000
     4  F    1.396875   2.208563   2.293747   0.000000
     5  O    1.386329   2.278921   2.287393   2.228777   0.000000
     6  S    2.430528   3.796806   2.503893   2.504772   2.160488
     7  O    3.205325   4.463564   3.617940   2.536108   3.048010
     8  O    3.587358   4.913062   3.158345   3.877350   3.287037
     9  O    3.147270   4.249405   2.261696   3.170307   3.820483
    10  H    3.799356   5.167610   3.741895   3.665971   3.432487
    11  H    3.373840   4.512737   3.779878   2.356860   3.572382
    12  H    2.817538   3.938109   2.334397   2.449562   3.561934
                    6          7          8          9         10
     6  S    0.000000
     7  O    1.556799   0.000000
     8  O    1.484974   2.640465   0.000000
     9  O    2.434052   3.165153   2.456077   0.000000
    10  H    1.377249   1.668445   1.281730   2.911231   0.000000
    11  H    2.265992   0.993880   3.339547   3.149705   2.457644
    12  H    2.212670   2.526957   2.741151   0.977106   2.786988
                   11         12
    11  H    0.000000
    12  H    2.306654   0.000000
 Symmetry turned off by external request.
 Stoichiometry    CH3F3O4S
 Framework group  C1[X(CH3F3O4S)]
 Deg. of freedom    30
 Full point group                 C1      NOp   1
 Rotational constants (GHZ):           2.2090241           1.0975835           0.9883022
 Standard basis: 6-31G(d) (6D, 7F)
   145 basis functions,   288 primitive gaussians,   145 cartesian basis functions
    42 alpha electrons       42 beta electrons
       nuclear repulsion energy       686.7031520436 Hartrees.
 NAtoms=   12 NActive=   12 NUniq=   12 SFac= 1.00D+00 NAtFMM=   60 NAOKFM=F Big=F
 Integral buffers will be    131072 words long.
 Raffenetti 2 integral format.
 Two-electron integral symmetry is turned off.
 One-electron integrals computed using PRISM.
 NBasis=   145 RedAO= T EigKep=  1.80D-03  NBF=   145
 NBsUse=   145 1.00D-06 EigRej= -1.00D+00 NBFU=   145
 Keep R1 ints in memory in canonical form, NReq=63804720.
 Requested convergence on RMS density matrix=1.00D-08 within 128 cycles.
 Requested convergence on MAX density matrix=1.00D-06.
 Requested convergence on             energy=1.00D-06.
 No special actions if energy rises.
 SCF Done:  E(RB3LYP) =  -1038.01653987     A.U. after    1 cycles
            NFock=  1  Conv=0.20D+01     -V/T= 2.0050
 Calling FoFJK, ICntrl=      2127 FMM=F ISym2X=0 I1Cent= 0 IOpClX= 0 NMat=1 NMatS=1 NMatT=0.
 -------------------------------------------------------------------
 Center     Atomic                   Forces (Hartrees/Bohr)
 Number     Number              X              Y              Z
 -------------------------------------------------------------------
      1        6          -0.040673030   -0.096238727    0.022624044
      2        9           0.022365168    0.005072500   -0.005514058
      3        9          -0.032106038   -0.005055784   -0.004116795
      4        9          -0.010731228    0.029658989    0.001048470
      5        8          -0.037719238    0.070761715   -0.008824886
      6       16          -0.099100002   -0.016013629    0.069883176
      7        8           0.039106926    0.022964326   -0.109154298
      8        8           0.087796129    0.003414743    0.052743956
      9        8           0.013152797   -0.034256600   -0.036125405
     10        1           0.075485477   -0.009180771    0.032429937
     11        1          -0.005579094   -0.003301721   -0.006526306
     12        1          -0.011997867    0.032174961   -0.008467837
 -------------------------------------------------------------------
 Cartesian Forces:  Max     0.109154298 RMS     0.044352301
 TRJ-TRJ-TRJ-TRJ-TRJ-TRJ-TRJ-TRJ-TRJ-TRJ-TRJ-TRJ-TRJ-TRJ-TRJ-TRJ-TRJ-TRJ

 ADMP step      6
 Frobenius norm of [F,P] =     5.449028D-02
 Current gradient on entry to l121
 I=    1 X=   4.067303023169D-02 Y=   9.623872686690D-02 Z=  -2.262404430554D-02
 I=    2 X=  -2.236516764978D-02 Y=  -5.072499513281D-03 Z=   5.514057629400D-03
 I=    3 X=   3.210603799620D-02 Y=   5.055783851159D-03 Z=   4.116794902256D-03
 I=    4 X=   1.073122761918D-02 Y=  -2.965898861286D-02 Z=  -1.048469633091D-03
 I=    5 X=   3.771923840204D-02 Y=  -7.076171494718D-02 Z=   8.824885551998D-03
 I=    6 X=   9.910000185998D-02 Y=   1.601362928585D-02 Z=  -6.988317593741D-02
 I=    7 X=  -3.910692609266D-02 Y=  -2.296432554108D-02 Z=   1.091542977686D-01
 I=    8 X=  -8.779612948187D-02 Y=  -3.414743095066D-03 Z=  -5.274395645050D-02
 I=    9 X=  -1.315279703703D-02 Y=   3.425660018082D-02 Z=   3.612540488104D-02
 I=   10 X=  -7.548547667859D-02 Y=   9.180771363513D-03 Z=  -3.242993729959D-02
 I=   11 X=   5.579094259543D-03 Y=   3.301720970375D-03 Z=   6.526305728104D-03
 I=   12 X=   1.199786657127D-02 Y=  -3.217496080929D-02 Z=   8.467837164743D-03

 Summary information for step      6
 Time (fs)     0.600000
 EKinC      =      0.1054798; EKinPA =      0.0025952; EKinPB =      0.0025952
 EKin       =      0.1106702; EPot   =  -1038.0165399; ETot   =  -1037.9058697
 ETot-EKinP =  -1037.9110600
 Adiabaticity Index =    3.5688D-03
 Integrand for the Velocity-Velocity Auto-Correlation  Function =   1.899568554779D-01
 Angular momentum
   JX = -0.1928947569D-14  JY =  0.1367406520D-12  JZ = -0.2711258107D-13
 Jtot =  0.1394159919D-12 H-BAR;  J (Quantum Number) =  0.0000000000D+00
 Total energy  -1.037905870D+03  Delta-E  -7.462207D-06 A.U.
 Total angular momentum   1.394160D-13  Delta-A   5.830653D-15 h-bar
 Tr(PA)-NA = -7.105D-15
 Tr(PA**2-PA) = -8.364D-11
 Tr[(PA**2-PA)**2] =  2.952D-13
 Cartesian coordinates:
 I=    1 X=  -2.452400143120D+00 Y=  -3.813754021076D-01 Z=  -2.551988468247D-02
 I=    2 X=  -5.042147808583D+00 Y=  -4.833634610062D-01 Z=  -1.020548487516D-01
 I=    3 X=  -1.813074350949D+00 Y=   1.432412309170D+00 Z=   1.670149649114D+00
 I=    4 X=  -1.682921788853D+00 Y=   1.986434706750D-01 Z=  -2.483070433770D+00
 I=    5 X=  -1.419369521001D+00 Y=  -2.721352314568D+00 Z=   5.407073514107D-01
 I=    6 X=   2.123356109170D+00 Y=  -7.254361744631D-01 Z=   1.745167777760D-01
 I=    7 X=   2.996892112340D+00 Y=  -8.238027849292D-01 Z=  -2.633003398536D+00
 I=    8 X=   3.940557376438D+00 Y=  -6.073475133514D-02 Z=   2.206923173547D+00
 I=    9 X=   1.677440778511D+00 Y=   3.788190753771D+00 Z=   9.396955919485D-01
 I=   10 X=   4.720266853519D+00 Y=  -6.986654942327D-01 Z=   4.253612520928D-03
 I=   11 X=   2.524362884127D+00 Y=   4.589215133059D-01 Z=  -3.920956719636D+00
 I=   12 X=   1.348200397413D+00 Y=   3.266056394333D+00 Z=  -8.005345031542D-01
 MW Cartesian velocity:
 I=    1 X=   2.973533735173D+13 Y=   5.024511567611D+13 Z=   5.200504577342D+13
 I=    2 X=   2.837918138819D+12 Y=  -6.256528592188D+12 Z=  -8.721546904253D+13
 I=    3 X=  -7.680602108800D+13 Y=   5.409599679060D+13 Z=  -2.949032680707D+13
 I=    4 X=  -9.675041356799D+13 Y=  -3.932826365224D+13 Z=  -1.765212192484D+13
 I=    5 X=   1.160914828057D+12 Y=  -5.997710446386D+13 Z=   5.401187360462D+13
 I=    6 X=   4.783922545680D+12 Y=  -9.479644762633D+13 Z=   1.861035937971D+12
 I=    7 X=  -9.833024436598D+13 Y=   4.810907208310D+13 Z=   3.701214325603D+13
 I=    8 X=   9.802377510349D+13 Y=   1.533701277989D+12 Z=  -6.026950734904D+13
 I=    9 X=   1.835485573653D+13 Y=   4.172780779758D+13 Z=   5.100993017752D+13
 I=   10 X=   2.250781684213D+14 Y=   8.987907458949D+13 Z=   4.933077095882D+13
 I=   11 X=   1.764049116497D+14 Y=   6.047982162884D+13 Z=   1.041208487892D+13
 I=   12 X=   1.336593726595D+14 Y=   4.817541989111D+13 Z=   7.941264661199D+12
 TRJ-TRJ-TRJ-TRJ-TRJ-TRJ-TRJ-TRJ-TRJ-TRJ-TRJ-TRJ-TRJ-TRJ-TRJ-TRJ-TRJ-TRJ
                          Input orientation:                          
 ---------------------------------------------------------------------
 Center     Atomic      Atomic             Coordinates (Angstroms)
 Number     Number       Type             X           Y           Z
 ---------------------------------------------------------------------
[...]
 I=    7 X=  -5.607988131235D+13 Y=   7.289811350024D+13 Z=  -4.292886658224D+13
 I=    8 X=   2.402678967927D+14 Y=   4.735096143126D+12 Z=  -6.413362956053D+13
 I=    9 X=   2.931357515096D+13 Y=   6.947423340965D+12 Z=   2.302903279600D+13
 I=   10 X=   2.481236979619D+14 Y=   1.329820359729D+14 Z=   3.261483058863D+14
 I=   11 X=   1.643462546596D+14 Y=   4.253767402742D+13 Z=   3.324493806173D+13
 I=   12 X=   1.124269681044D+14 Y=   1.519049807625D+14 Z=  -3.031166803214D+13


 Final analysis for traj   1
 Traj calculation does not meet the product criterion.


 Analysis of fragment    1

 Instantaneous rotational analysis:
 Q(CM): X=  0.528770747236D-16 Y= -0.211508298895D-16 Z=  0.105754149447D-16
 V(CM): X= -0.264385373618D-02 Y=  0.132192686809D-02 Z= -0.198289030214D-02
 Angular momentum in principle axes
   JX = -0.4895368986D-14  JY = -0.6363979682D-13  JZ = -0.3671526739D-13
 Jtot =  0.7363422598D-13  H-BAR;  J (Quantum Number) =  0.0000000000D+00
 Angular momentum in original axes
   JX = -0.3495337052D-13  JY =  0.3055344803D-13  JZ = -0.5715547164D-13
 Jtot =  0.7363422598D-13  H-BAR;  J (Quantum Number) =  0.0000000000D+00

 Etrn =  0.2983172446D-32 Erot =  0.1043210709D-32 Evib(kin) =  0.2071484401D+00 au
 Epot = -0.1037905883D+04 Etot = -0.1037698735D+04 au

 Trajectory summary for trajectory      1
 Energy/Fock evaluations               51
 Gradient evaluations                  51

 Trajectory summary
   Time (fs)   Kinetic (au)   Potent (au)   Delta E (au)     Delta A (h-bar)
     0.000000     0.1000000 -1038.0059443     0.0000000     0.0000000000000000
     0.100000     0.1015351 -1038.0074550     0.0000245     0.0000000000000538
     0.200000     0.1027604 -1038.0086307     0.0000740     0.0000000000000523
     0.300000     0.1042295 -1038.0100729     0.0001009     0.0000000000000509
     0.400000     0.1061742 -1038.0120230     0.0000955     0.0000000000000628
     0.500000     0.1084049 -1038.0142671     0.0000821     0.0000000000000943
     0.600000     0.1106702 -1038.0165399     0.0000747     0.0000000000001002
     0.700000     0.1129008 -1038.0187802     0.0000649     0.0000000000000664
     0.800000     0.1151377 -1038.0210355     0.0000466     0.0000000000000822
     0.900000     0.1174150 -1038.0233341     0.0000253     0.0000000000000723
     1.000000     0.1197537 -1038.0256916     0.0000064     0.0000000000000949
     1.100000     0.1221552 -1038.0281084    -0.0000088     0.0000000000000347
     1.200000     0.1245679 -1038.0305272    -0.0000150     0.0000000000000321
     1.300000     0.1269293 -1038.0328793    -0.0000057     0.0000000000000352
     1.400000     0.1292507 -1038.0351809     0.0000140     0.0000000000000267
     1.500000     0.1315961 -1038.0375093     0.0000312     0.0000000000000232
     1.600000     0.1339796 -1038.0398844     0.0000395     0.0000000000000538
     1.700000     0.1363435 -1038.0422447     0.0000431     0.0000000000000330
     1.800000     0.1386429 -1038.0445419     0.0000452    -0.0000000000000102
     1.900000     0.1408979 -1038.0467975     0.0000446     0.0000000000000623
     2.000000     0.1431598 -1038.0490634     0.0000407     0.0000000000000106
     2.100000     0.1454669 -1038.0513757     0.0000355     0.0000000000000520
     2.200000     0.1478357 -1038.0537502     0.0000298    -0.0000000000000034
     2.300000     0.1502586 -1038.0561798     0.0000232     0.0000000000000081
     2.400000     0.1527063 -1038.0586335     0.0000171    -0.0000000000000044
     2.500000     0.1551581 -1038.0610889     0.0000135     0.0000000000000146
     2.600000     0.1576241 -1038.0635579     0.0000105    -0.0000000000000227
     2.700000     0.1601138 -1038.0660521     0.0000060     0.0000000000000005
     2.800000     0.1625947 -1038.0685358     0.0000032     0.0000000000000133
     2.900000     0.1650180 -1038.0709552     0.0000070    -0.0000000000000007
     3.000000     0.1673797 -1038.0733075     0.0000164     0.0000000000000282
     3.100000     0.1697253 -1038.0756451     0.0000245     0.0000000000000187
     3.200000     0.1720919 -1038.0780097     0.0000265     0.0000000000000069
     3.300000     0.1744754 -1038.0803958     0.0000239    -0.0000000000000083
     3.400000     0.1768579 -1038.0827825     0.0000197     0.0000000000000036
     3.500000     0.1792400 -1038.0851688     0.0000156     0.0000000000000241
     3.600000     0.1816334 -1038.0875651     0.0000126     0.0000000000000793
     3.700000     0.1840421 -1038.0899739     0.0000125     0.0000000000000581
     3.800000     0.1864604 -1038.0923899     0.0000148     0.0000000000000609
     3.900000     0.1888774 -1038.0948049     0.0000168     0.0000000000000530
     4.000000     0.1912766 -1038.0972056     0.0000154     0.0000000000000444
     4.100000     0.1936462 -1038.0995817     0.0000088     0.0000000000000612
     4.200000     0.1959898 -1038.1019378    -0.0000037     0.0000000000000331
     4.300000     0.1983206 -1038.1042855    -0.0000206     0.0000000000000203
     4.400000     0.2006472 -1038.1066276    -0.0000361     0.0000000000000416
     4.500000     0.2029781 -1038.1089664    -0.0000440     0.0000000000000184
     4.600000     0.2053250 -1038.1113110    -0.0000417     0.0000000000000840
     4.700000     0.2076810 -1038.1136545    -0.0000292     0.0000000000000584
     4.800000     0.2100102 -1038.1159599    -0.0000054     0.0000000000000635
     4.900000     0.2122938 -1038.1182102     0.0000279     0.0000000000000938
     5.000000     0.2145685 -1038.1204516     0.0000612     0.0000000000000344
                             Max Error =      0.0001009     0.0000000000001002

 Density conservation (alpha)
    Time (fs)      Electron #     Av. Idempot     RMS Idempot
     0.000000  0.000000000000  0.000000000000  0.000000000000
     0.100000 -0.000000000000  0.000000000000  0.000000000000
     0.200000 -0.000000000000 -0.000000000088  0.000000000000
     0.300000  0.000000000000 -0.000000000149  0.000000000001
     0.400000  0.000000000000 -0.000000000165  0.000000000001
     0.500000 -0.000000000000 -0.000000000137  0.000000000000
     0.600000 -0.000000000000 -0.000000000084  0.000000000000
     0.700000 -0.000000000000  0.000000000089  0.000000000000
     0.800000 -0.000000000000  0.000000000250  0.000000000001
     0.900000  0.000000000000 -0.000000000178  0.000000000001
     1.000000  0.000000000000 -0.000000000230  0.000000000001
     1.100000  0.000000000000 -0.000000000241  0.000000000001
     1.200000  0.000000000000 -0.000000000221  0.000000000001
     1.300000  0.000000000000 -0.000000000180  0.000000000001
     1.400000  0.000000000000 -0.000000000125  0.000000000000
     1.500000  0.000000000000  0.000000000206  0.000000000001
     1.600000 -0.000000000000 -0.000000000053  0.000000000000
     1.700000 -0.000000000000  0.000000000079  0.000000000000
     1.800000 -0.000000000000  0.000000000122  0.000000000000
     1.900000 -0.000000000000  0.000000000139  0.000000000000
     2.000000 -0.000000000000  0.000000000138  0.000000000000
     2.100000  0.000000000000  0.000000000127  0.000000000000
     2.200000 -0.000000000000  0.000000000114  0.000000000000
     2.300000 -0.000000000000  0.000000000100  0.000000000000
     2.400000 -0.000000000000  0.000000000081  0.000000000000
     2.500000  0.000000000000 -0.000000000187  0.000000000001
     2.600000  0.000000000000  0.000000000122  0.000000000001
     2.700000  0.000000000000  0.000000000126  0.000000000000
     2.800000  0.000000000000  0.000000000251  0.000000000001
     2.900000 -0.000000000000 -0.000000000081  0.000000000000
     3.000000  0.000000000000  0.000000000257  0.000000000001
     3.100000  0.000000000000  0.000000000139  0.000000000001
     3.200000 -0.000000000000  0.000000000023  0.000000000001
     3.300000 -0.000000000000 -0.000000000111  0.000000000000
     3.400000  0.000000000000 -0.000000000140  0.000000000000
     3.500000 -0.000000000000 -0.000000000094  0.000000000000
     3.600000 -0.000000000000  0.000000000058  0.000000000000
     3.700000 -0.000000000000  0.000000000060  0.000000000000
     3.800000  0.000000000000  0.000000000074  0.000000000000
     3.900000  0.000000000000 -0.000000000094  0.000000000000
     4.000000 -0.000000000000 -0.000000000067  0.000000000000
     4.100000  0.000000000000 -0.000000000149  0.000000000001
     4.200000 -0.000000000000 -0.000000000179  0.000000000001
     4.300000 -0.000000000000 -0.000000000151  0.000000000001
     4.400000 -0.000000000000 -0.000000000093  0.000000000000
     4.500000 -0.000000000000  0.000000000166  0.000000000001
     4.600000  0.000000000000  0.000000000109  0.000000000000
     4.700000 -0.000000000000  0.000000000183  0.000000000001
     4.800000 -0.000000000000  0.000000000326  0.000000000001
     4.900000  0.000000000000 -0.000000000109  0.000000000000
     5.000000 -0.000000000000 -0.000000000117  0.000000000000
 Max Error =   0.000000000000  0.000000000326  0.000000000001
 TRJ-TRJ-TRJ-TRJ-TRJ-TRJ-TRJ-TRJ-TRJ-TRJ-TRJ-TRJ-TRJ-TRJ-TRJ-TRJ-TRJ-TRJ
                          Input orientation:                          
 ---------------------------------------------------------------------
 Center     Atomic      Atomic             Coordinates (Angstroms)
 Number     Number       Type             X           Y           Z
 ---------------------------------------------------------------------
      1          6           0       -1.293687   -0.205311    0.026337
      2          9           0       -2.663073   -0.257526   -0.100513
      3          9           0       -1.008523    0.785135    0.866038
      4          9           0       -0.943878    0.090901   -1.321739
      5          8           0       -0.760505   -1.452309    0.316149
      6         16           0        1.110722   -0.428454    0.100114
      7          8           0        1.540013   -0.401188   -1.397143
      8          8           0        2.180070   -0.030531    1.135617
      9          8           0        0.901245    2.019185    0.519307
     10          1           0        3.164128   -0.117375    0.408803
     11          1           0        1.737469    0.378645   -2.051161
     12          1           0        0.997514    1.971020   -0.470765
 ---------------------------------------------------------------------
                    Distance matrix (angstroms):
                    1          2          3          4          5
     1  C    0.000000
     2  F    1.376239   0.000000
     3  F    1.329436   2.181490   0.000000
     4  F    1.423874   2.137388   2.296194   0.000000
     5  O    1.386823   2.284924   2.317336   2.257831   0.000000
     6  S    2.415868   3.782987   2.559421   2.552014   2.143931
     7  O    3.177188   4.400889   3.608932   2.533289   3.054932
     8  O    3.650758   5.003556   3.302288   3.976480   3.367485
     9  O    3.163721   4.274571   2.300069   3.242254   3.854083
    10  H    4.475057   5.851096   4.293554   4.462496   4.146490
    11  H    3.720874   4.855359   4.026879   2.793648   3.898258
    12  H    3.198926   4.301558   2.686550   2.833373   3.927982
                    6          7          8          9         10
     6  S    0.000000
     7  O    1.557823   0.000000
     8  O    1.540816   2.638547   0.000000
     9  O    2.492095   3.152619   2.493304   0.000000
    10  H    2.099652   2.445351   1.226447   3.114119   0.000000
    11  H    2.381638   1.036757   3.243281   3.161953   2.886661
    12  H    2.469047   2.603815   2.825794   0.995907   3.135164
                   11         12
    11  H    0.000000
    12  H    2.362381   0.000000
 Symmetry turned off by external request.
 Stoichiometry    CH3F3O4S
 Framework group  C1[X(CH3F3O4S)]
 Deg. of freedom    30
 Full point group                 C1      NOp   1
 Rotational constants (GHZ):           2.1832465           1.0623438           0.9618457

 **********************************************************************

            Population analysis using the SCF Density.

 **********************************************************************

 Alpha  occ. eigenvalues --  -89.12963 -24.74137 -24.72407 -24.70704 -19.29258
 Alpha  occ. eigenvalues --  -19.27199 -19.17658 -19.13387 -10.45865  -8.17086
 Alpha  occ. eigenvalues --   -6.13523  -6.13336  -6.12764  -1.29671  -1.23433
 Alpha  occ. eigenvalues --   -1.22490  -1.19951  -1.14370  -0.98418  -0.96176
 Alpha  occ. eigenvalues --   -0.79988  -0.67642  -0.66308  -0.60506  -0.58895
 Alpha  occ. eigenvalues --   -0.57153  -0.55621  -0.51730  -0.50756  -0.46649
 Alpha  occ. eigenvalues --   -0.46356  -0.44982  -0.43880  -0.43538  -0.43051
 Alpha  occ. eigenvalues --   -0.40159  -0.39407  -0.38167  -0.30348  -0.29119
 Alpha  occ. eigenvalues --   -0.28078  -0.24541
 Alpha virt. eigenvalues --   -0.21101  -0.11817  -0.01041   0.03169   0.06801
 Alpha virt. eigenvalues --    0.10454   0.14612   0.19121   0.20531   0.22189
 Alpha virt. eigenvalues --    0.27094   0.35225   0.38866   0.46045   0.48810
 Alpha virt. eigenvalues --    0.50149   0.51509   0.55396   0.57020   0.62846
 Alpha virt. eigenvalues --    0.69913   0.70718   0.75704   0.77326   0.80006
 Alpha virt. eigenvalues --    0.84449   0.86036   0.86975   0.90508   0.94432
 Alpha virt. eigenvalues --    0.95216   0.96947   0.99353   1.00138   1.04949
 Alpha virt. eigenvalues --    1.06742   1.09026   1.11883   1.14439   1.15268
 Alpha virt. eigenvalues --    1.18710   1.19443   1.21285   1.27830   1.33194
 Alpha virt. eigenvalues --    1.34374   1.37312   1.37373   1.41959   1.42393
 Alpha virt. eigenvalues --    1.43956   1.50083   1.56994   1.62135   1.67299
 Alpha virt. eigenvalues --    1.70331   1.70903   1.72302   1.76157   1.76775
 Alpha virt. eigenvalues --    1.78544   1.80108   1.82694   1.83914   1.85645
 Alpha virt. eigenvalues --    1.86471   1.86657   1.88683   1.90241   1.92454
 Alpha virt. eigenvalues --    1.93276   1.96060   1.96864   1.99892   2.02038
 Alpha virt. eigenvalues --    2.02784   2.04659   2.09667   2.10725   2.16502
 Alpha virt. eigenvalues --    2.28536   2.31453   2.46572   2.48297   2.50948
 Alpha virt. eigenvalues --    2.53084   2.63133   2.67892   2.73932   2.75454
 Alpha virt. eigenvalues --    2.93247   2.97772   3.00175   3.20123   3.61718
 Alpha virt. eigenvalues --    3.70468   3.75712   3.88469   3.94248   4.35075
 Alpha virt. eigenvalues --    4.46498   4.90447   5.77987
          Condensed to atoms (all electrons):
               1          2          3          4          5          6
     1  C    4.083044   0.294653   0.269036   0.213083   0.262872  -0.022689
     2  F    0.294653   9.129938  -0.038517  -0.043935  -0.043719   0.000010
     3  F    0.269036  -0.038517   9.086021  -0.026344  -0.044719  -0.012181
     4  F    0.213083  -0.043935  -0.026344   9.245175  -0.056740   0.011159
     5  O    0.262872  -0.043719  -0.044719  -0.056740   8.559863  -0.068600
     6  S   -0.022689   0.000010  -0.012181   0.011159  -0.068600  15.162192
     7  O   -0.001857   0.000004   0.000033  -0.005932   0.004541  -0.072096
     8  O   -0.000049   0.000001  -0.000070   0.000026   0.005411  -0.120318
     9  O   -0.000563  -0.000013  -0.022463  -0.001301  -0.000501   0.144848
    10  H    0.000067   0.000000  -0.000041  -0.000001   0.000137   0.019883
    11  H   -0.000090  -0.000004   0.000071   0.000817  -0.000847   0.030095
    12  H   -0.000162   0.000009   0.002355   0.002738   0.000033  -0.016889
               7          8          9         10         11         12
     1  C   -0.001857  -0.000049  -0.000563   0.000067  -0.000090  -0.000162
     2  F    0.000004   0.000001  -0.000013   0.000000  -0.000004   0.000009
     3  F    0.000033  -0.000070  -0.022463  -0.000041   0.000071   0.002355
     4  F   -0.005932   0.000026  -0.001301  -0.000001   0.000817   0.002738
     5  O    0.004541   0.005411  -0.000501   0.000137  -0.000847   0.000033
     6  S   -0.072096  -0.120318   0.144848   0.019883   0.030095  -0.016889
     7  O    8.471157   0.003511  -0.007359  -0.000929   0.159854   0.005600
     8  O    0.003511   8.416147  -0.044848   0.186240  -0.002344   0.002904
     9  O   -0.007359  -0.044848   8.304698   0.002450  -0.001262   0.164653
    10  H   -0.000929   0.186240   0.002450   0.403530  -0.000798  -0.001421
    11  H    0.159854  -0.002344  -0.001262  -0.000798   0.382785   0.004953
    12  H    0.005600   0.002904   0.164653  -0.001421   0.004953   0.490561
 Mulliken charges:
               1
     1  C    0.902656
     2  F   -0.298427
     3  F   -0.213180
     4  F   -0.338745
     5  O   -0.617730
     6  S    0.944585
     7  O   -0.556526
     8  O   -0.446612
     9  O   -0.538339
    10  H    0.390882
    11  H    0.426769
    12  H    0.344666
 Sum of Mulliken charges =   0.00000
 Mulliken charges with hydrogens summed into heavy atoms:
               1
     1  C    0.902656
     2  F   -0.298427
     3  F   -0.213180
     4  F   -0.338745
     5  O   -0.617730
     6  S    0.944585
     7  O   -0.129757
     8  O   -0.055729
     9  O   -0.193673
 Electronic spatial extent (au):  <R**2>=           1238.0143
 Charge=             -0.0000 electrons
 Dipole moment (field-independent basis, Debye):
    X=              7.8654    Y=              0.8985    Z=             -3.4064  Tot=              8.6183
 Quadrupole moment (field-independent basis, Debye-Ang):
   XX=            -44.4911   YY=            -62.3168   ZZ=            -53.1471
   XY=             -2.5624   XZ=             -6.2733   YZ=             -5.3712
 Traceless Quadrupole moment (field-independent basis, Debye-Ang):
   XX=              8.8272   YY=             -8.9984   ZZ=              0.1712
   XY=             -2.5624   XZ=             -6.2733   YZ=             -5.3712
 Octapole moment (field-independent basis, Debye-Ang**2):
  XXX=             34.7509  YYY=              3.2607  ZZZ=            -13.8293  XYY=             -5.8014
  XXY=              2.0988  XXZ=             -8.9233  XZZ=             -1.0815  YZZ=              5.8533
  YYZ=             -9.6604  XYZ=             -8.8286
 Hexadecapole moment (field-independent basis, Debye-Ang**3):
 XXXX=           -629.6653 YYYY=           -321.1059 ZZZZ=           -215.9036 XXXY=            -33.6891
 XXXZ=            -29.1062 YYYX=            -35.6796 YYYZ=            -33.1382 ZZZX=            -45.6832
 ZZZY=            -30.7928 XXYY=           -180.8880 XXZZ=           -159.6124 YYZZ=            -91.6041
 XXYZ=            -18.5632 YYXZ=            -11.2637 ZZXY=             -0.5959
 N-N= 6.757104549725D+02 E-N=-3.813510253873D+03  KE= 1.032197841243D+03
 Unable to Open any file for archive entry.
 1\1\GINC-SPARTAN-BM197\ADMP\RB3LYP\6-31G(d)\C1H3F3O4S1\AKHALILOV\19-Ma
 r-2025\0\\# B3LYP/6-31G(d) ADMP int=ultrafine\\ISOPFMS ADMP thermal de
 composition simulation targeting 600K\\0,1\C,-1.2936873,-0.2053108947,
 0.0263368771\F,-2.6630730536,-0.2575258251,-0.1005125881\F,-1.00852323
 63,0.7851352347,0.8660379074\F,-0.9438776489,0.090901054,-1.3217392118
 \O,-0.7605049046,-1.452308835,0.3161490378\S,1.1107216379,-0.428453988
 7,0.1001136654\O,1.5400132213,-0.4011878797,-1.397143186\O,2.180069623
 8,-0.0305312855,1.1356166777\O,0.9012453653,2.0191849511,0.5193067719\
 H,3.1641282229,-0.1173750463,0.4088029732\H,1.737468799,0.3786445688,-
 2.0511605422\H,0.997513725,1.9710200598,-0.470765352\\Version=ES64L-G1
 6RevC.01\HF=-1038.1204516\RMSD=2.000e+00\RMSF=4.357e-02\Dipole=3.09447
 52,0.3534959,-1.3401923\Quadrupole=6.5628153,-6.6901202,0.1273049,-1.9
 050877,-4.6640528,-3.9933313\PG=C01 [X(C1H3F3O4S1)]\\@
 The archive entry for this job was punched.


 AN OPTIMIST IS A GUY
 THAT HAS NEVER HAD
 MUCH EXPERIENCE
   (CERTAIN MAXIMS OF ARCHY  -- DON MARQUIS)
 Job cpu time:       0 days  0 hours 10 minutes 37.9 seconds.
 Elapsed time:       0 days  0 hours  3 minutes  0.5 seconds.
 File lengths (MBytes):  RWF=     15 Int=      0 D2E=      0 Chk=      4 Scr=      1
 Normal termination of Gaussian 16 at Wed Mar 19 15:11:22 2025.
