 Entering Gaussian System, Link 0=g16
 Input=PFMS_ADMP_600K.gjf
 Output=PFMS_ADMP_600K.log
 Initial command:
 /apps/easybuild-2022/easybuild/software/Compiler/NVHPC/22.11-CUDA-11.7.0/Gaussian/g16c01-CUDA-11.7.0/g16/l1.exe "/tmp/Gau-76812.inp" -scrdir="/tmp/"
 Default is to use a total of   4 processors:
                                4 via shared-memory
                                1 via Linda
 Entering Link 1 = /apps/easybuild-2022/easybuild/software/Compiler/NVHPC/22.11-CUDA-11.7.0/Gaussian/g16c01-CUDA-11.7.0/g16/l1.exe PID=     76813.
  
 Copyright (c) 1988-2019, Gaussian, Inc.  All Rights Reserved.
  
 This is part of the Gaussian(R) 16 program.  It is based on
 the Gaussian(R) 09 system (copyright 2009, Gaussian, Inc.),
 the Gaussian(R) 03 system (copyright 2003, Gaussian, Inc.),
 the Gaussian(R) 98 system (copyright 1998, Gaussian, Inc.),
 the Gaussian(R) 94 system (copyright 1995, Gaussian, Inc.),
 the Gaussian 92(TM) system (copyright 1992, Gaussian, Inc.),
 the Gaussian 90(TM) system (copyright 1990, Gaussian, Inc.),
 the Gaussian 88(TM) system (copyright 1988, Gaussian, Inc.),
 the Gaussian 86(TM) system (copyright 1986, Carnegie Mellon
 University), and the Gaussian 82(TM) system (copyright 1983,
 Carnegie Mellon University). Gaussian is a federally registered
 trademark of Gaussian, Inc.
  
 This software contains proprietary and confidential information,
 including trade secrets, belonging to Gaussian, Inc.
  
 This software is provided under written license and may be
 used, copied, transmitted, or stored only in accord with that
 written license.
  
 The following legend is applicable only to US Government
 contracts under FAR:
  
                    RESTRICTED RIGHTS LEGEND
  
 Use, reproduction and disclosure by the US Government is
 subject to restrictions as set forth in subparagraphs (a)
 and (c) of the Commercial Computer Software - Restricted
 Rights clause in FAR 52.227-19.
  
 Gaussian, Inc.
 340 Quinnipiac St., Bldg. 40, Wallingford CT 06492
  
  
 ---------------------------------------------------------------
 Warning -- This program may not be used in any manner that
 competes with the business of Gaussian, Inc. or will provide
 assistance to any competitor of Gaussian, Inc.  The licensee
 of this program is prohibited from giving any competitor of
 Gaussian, Inc. access to this program.  By using this program,
 the user acknowledges that Gaussian, Inc. is engaged in the
 business of creating and licensing software in the field of
 computational chemistry and represents and warrants to the
 licensee that it is not a competitor of Gaussian, Inc. and that
 it will not use this program in any manner prohibited above.
 ---------------------------------------------------------------
  

 Cite this work as:
 Gaussian 16, Revision C.01,
 M. J. Frisch, G. W. Trucks, H. B. Schlegel, G. E. Scuseria, 
 M. A. Robb, J. R. Cheeseman, G. Scalmani, V. Barone, 
 G. A. Petersson, H. Nakatsuji, X. Li, M. Caricato, A. V. Marenich, 
 J. Bloino, B. G. Janesko, R. Gomperts, B. Mennucci, H. P. Hratchian, 
 J. V. Ortiz, A. F. Izmaylov, J. L. Sonnenberg, D. Williams-Young, 
 F. Ding, F. Lipparini, F. Egidi, J. Goings, B. Peng, A. Petrone, 
 T. Henderson, D. Ranasinghe, V. G. Zakrzewski, J. Gao, N. Rega, 
 G. Zheng, W. Liang, M. Hada, M. Ehara, K. Toyota, R. Fukuda, 
 J. Hasegawa, M. Ishida, T. Nakajima, Y. Honda, O. Kitao, H. Nakai, 
 T. Vreven, K. Throssell, J. A. Montgomery, Jr., J. E. Peralta, 
 F. Ogliaro, M. J. Bearpark, J. J. Heyd, E. N. Brothers, K. N. Kudin, 
 V. N. Staroverov, T. A. Keith, R. Kobayashi, J. Normand, 
 K. Raghavachari, A. P. Rendell, J. C. Burant, S. S. Iyengar, 
 J. Tomasi, M. Cossi, J. M. Millam, M. Klene, C. Adamo, R. Cammi, 
 J. W. Ochterski, R. L. Martin, K. Morokuma, O. Farkas, 
 J. B. Foresman, and D. J. Fox, Gaussian, Inc., Wallingford CT, 2019.
 
 ******************************************
 Gaussian 16:  ES64L-G16RevC.01  3-Jul-2019
                19-Mar-2025 
 ******************************************
 %chk=PFMS_ADMP TRJTRY RSTF=10_600K.chk
 %mem=8GB
 %nprocshared=8
 Will use up to    8 processors via shared memory.
 -----------------------------------
 # B3LYP/6-31G(d) ADMP int=ultrafine
 -----------------------------------
 1/26=4,29=20000,38=1,172=1/1,21;
 2/12=2,17=6,18=5,29=2,40=1/2;
 3/5=1,6=6,7=1,11=2,25=1,30=1,65=-1,71=1,74=-5,75=-5,89=400,90=600/1,2,3;
 4//1;
 5/5=2,14=200,38=5/2;
 6/7=2,8=2,9=2,10=2,28=1/1;
 7/7=1,127=-100/1,2,3,16;
 1/26=4/21(2);
 2/29=1/2;
 99/12=1/99;
 2/29=1/2;
 3/5=1,6=6,7=1,11=2,25=1,30=1,65=-1,71=1,74=-5,75=-5,89=400,90=600/1,2,3;
 5/5=2,14=100/2;
 7/7=1,127=-100/1,2,3,16;
 1/26=4/21(-4);
 2/29=1/2;
 6/7=2,8=2,9=2,10=2,19=2,28=1/1;
 99/9=1,12=1/99;
 ---------------------------------------------------------
 PFMS ADMP thermal decomposition simulation targeting 600K
 ---------------------------------------------------------
 Symbolic Z-matrix:
 Charge =  0 Multiplicity = 1
 C                    -1.07631  -0.2068   -0.30803 
 F                    -1.21467  -0.01737  -1.65066 
 F                    -1.69683   0.84598   0.30051 
 F                    -1.79151  -1.32188   0.01169 
 S                     0.70385  -0.34283   0.20973 
 O                     0.83171  -0.365     1.65578 
 O                     1.42568  -1.29926  -0.60661 
 O                     1.24373   1.13093  -0.21163 
 H                     1.57436   1.57623   0.59922 
 
 TRJ-TRJ-TRJ-TRJ-TRJ-TRJ-TRJ-TRJ-TRJ-TRJ-TRJ-TRJ-TRJ-TRJ-TRJ-TRJ-TRJ-TRJ
 ------------------------------------------------------------------------
 INPUT DATA FOR L121
 ------------------------------------------------------------------------

 General parameters:
 Maximum Steps                =      50
 Random Number Generator Seed =    398465
 Time Step                    =  0.10000 femtosec
 Ficticious electronic mass   =  0.10000 amu
 MW individual basis funct.   = True 
 Initial nuclear kin. energy  =  0.10000 hartree
 Initial electr. kin. energy  =  0.00000 hartree
   Initial electr. KE scheme  =  0
 Multitime step - NDtrC       =       1
 Multitime step - NDtrP       =       1
 No Thermostats chosen to control nuclear temperature

 Integration parameters:

 Follow Rxn Path (DVV)        = False
 Constraint Scheme            =      10
 Projection of angular mom.   = True 
 Rotate density with nuclei   = True 
 ------------------------------------------------------------------------
 TRJ-TRJ-TRJ-TRJ-TRJ-TRJ-TRJ-TRJ-TRJ-TRJ-TRJ-TRJ-TRJ-TRJ-TRJ-TRJ-TRJ-TRJ
 ---------------------------------------------------------------------------------------------------
                            Z-MATRIX (ANGSTROMS AND DEGREES)
   CD    Cent   Atom    N1       Length/X        N2       Alpha/Y        N3        Beta/Z          J
 ---------------------------------------------------------------------------------------------------
      1      1  C        0  -1.076305         -0.206801         -0.308028
      2      2  F        0  -1.214674         -0.017372         -1.650659
      3      3  F        0  -1.696829          0.845977          0.300506
      4      4  F        0  -1.791510         -1.321884          0.011693
      5      5  S        0   0.703851         -0.342832          0.209734
      6      6  O        0   0.831706         -0.364997          1.655778
      7      7  O        0   1.425678         -1.299256         -0.606614
      8      8  O        0   1.243728          1.130932         -0.211628
      9      9  H        0   1.574356          1.576231          0.599219
 ---------------------------------------------------------------------------------------------------
                         Z-Matrix orientation:                         
 ---------------------------------------------------------------------
 Center     Atomic      Atomic             Coordinates (Angstroms)
 Number     Number       Type             X           Y           Z
 ---------------------------------------------------------------------
      1          6           0       -1.076305   -0.206801   -0.308028
      2          9           0       -1.214674   -0.017372   -1.650659
      3          9           0       -1.696829    0.845977    0.300506
      4          9           0       -1.791510   -1.321884    0.011693
      5         16           0        0.703851   -0.342832    0.209734
      6          8           0        0.831706   -0.364997    1.655778
      7          8           0        1.425678   -1.299256   -0.606614
      8          8           0        1.243728    1.130932   -0.211628
      9          1           0        1.574356    1.576231    0.599219
 ---------------------------------------------------------------------
                    Distance matrix (angstroms):
                    1          2          3          4          5
     1  C    0.000000
     2  F    1.362970   0.000000
     3  F    1.365176   2.187439   0.000000
     4  F    1.362773   2.190412   2.189063   0.000000
     5  S    1.858908   2.692160   2.680442   2.687860   0.000000
     6  O    2.742639   3.903977   3.113954   3.240357   1.451854
     7  O    2.746367   3.115239   3.895503   3.276143   1.449898
     8  O    2.679809   3.071344   2.998392   3.908817   1.625113
     9  H    3.320889   3.921761   3.364989   4.480325   2.142961
                    6          7          8          9
     6  O    0.000000
     7  O    2.518742   0.000000
     8  O    2.427915   2.468792   0.000000
     9  H    2.331569   3.121628   0.982384   0.000000
 Symmetry turned off by external request.
 Stoichiometry    CHF3O3S
 Framework group  C1[X(CHF3O3S)]
 Deg. of freedom    21
 Full point group                 C1      NOp   1
 Rotational constants (GHZ):           2.6261855           1.4603611           1.4409615
 Standard basis: 6-31G(d) (6D, 7F)
   126 basis functions,   252 primitive gaussians,   126 cartesian basis functions
    37 alpha electrons       37 beta electrons
       nuclear repulsion energy       556.5105964690 Hartrees.
 NAtoms=    9 NActive=    9 NUniq=    9 SFac= 1.00D+00 NAtFMM=   60 NAOKFM=F Big=F
 Integral buffers will be    131072 words long.
 Raffenetti 2 integral format.
 Two-electron integral symmetry is turned off.
 One-electron integrals computed using PRISM.
 NBasis=   126 RedAO= T EigKep=  2.59D-03  NBF=   126
 NBsUse=   126 1.00D-06 EigRej= -1.00D+00 NBFU=   126
 ExpMin= 1.17D-01 ExpMax= 2.19D+04 ExpMxC= 3.30D+03 IAcc=3 IRadAn=         5 AccDes= 0.00D+00
 Harris functional with IExCor=  402 and IRadAn=       5 diagonalized for initial guess.
 HarFok:  IExCor=  402 AccDes= 0.00D+00 IRadAn=         5 IDoV= 1 UseB2=F ITyADJ=14
 ICtDFT=  3500011 ScaDFX=  1.000000  1.000000  1.000000  1.000000
 FoFCou: FMM=F IPFlag=           0 FMFlag=      100000 FMFlg1=           0
         NFxFlg=           0 DoJE=T BraDBF=F KetDBF=T FulRan=T
         wScrn=  0.000000 ICntrl=       500 IOpCl=  0 I1Cent=   200000004 NGrid=           0
         NMat0=    1 NMatS0=      1 NMatT0=    0 NMatD0=    1 NMtDS0=    0 NMtDT0=    0
 Symmetry not used in FoFCou.
 Keep R1 ints in memory in canonical form, NReq=39624265.
 Requested convergence on RMS density matrix=1.00D-08 within 128 cycles.
 Requested convergence on MAX density matrix=1.00D-06.
 Requested convergence on             energy=1.00D-06.
 No special actions if energy rises.
 Integral accuracy reduced to 1.0D-05 until final iterations.
 Initial convergence to 1.0D-05 achieved.  Increase integral accuracy.
 SCF Done:  E(RB3LYP) =  -961.988834387     A.U. after   14 cycles
            NFock= 14  Conv=0.97D-08     -V/T= 2.0062

 **********************************************************************

            Population analysis using the SCF Density.

 **********************************************************************

 Alpha  occ. eigenvalues --  -89.17446 -24.77507 -24.77335 -24.77280 -19.24143
 Alpha  occ. eigenvalues --  -19.19712 -19.19484 -10.50030  -8.19955  -6.16517
 Alpha  occ. eigenvalues --   -6.16294  -6.16268  -1.34154  -1.25661  -1.25510
 Alpha  occ. eigenvalues --   -1.18895  -1.07565  -1.05494  -0.79584  -0.69909
 Alpha  occ. eigenvalues --   -0.63493  -0.62132  -0.61773  -0.55923  -0.51583
 Alpha  occ. eigenvalues --   -0.49795  -0.49632  -0.49334  -0.47119  -0.46141
 Alpha  occ. eigenvalues --   -0.45968  -0.44018  -0.40598  -0.38154  -0.36324
 Alpha  occ. eigenvalues --   -0.36262  -0.34152
 Alpha virt. eigenvalues --   -0.01729  -0.01203   0.02265   0.05763   0.09257
 Alpha virt. eigenvalues --    0.14071   0.15864   0.18596   0.28639   0.31452
 Alpha virt. eigenvalues --    0.34274   0.38724   0.45807   0.48571   0.51071
 Alpha virt. eigenvalues --    0.64704   0.68135   0.73005   0.75650   0.79240
 Alpha virt. eigenvalues --    0.81356   0.87968   0.88057   0.92770   0.97368
 Alpha virt. eigenvalues --    0.98892   0.99759   1.01035   1.01690   1.07637
 Alpha virt. eigenvalues --    1.10045   1.10756   1.11424   1.16045   1.16202
 Alpha virt. eigenvalues --    1.18140   1.27306   1.28920   1.31941   1.34097
 Alpha virt. eigenvalues --    1.34104   1.36247   1.37409   1.51246   1.54682
 Alpha virt. eigenvalues --    1.58747   1.60372   1.66157   1.71152   1.73860
 Alpha virt. eigenvalues --    1.75176   1.76363   1.77319   1.78793   1.79947
 Alpha virt. eigenvalues --    1.81200   1.82128   1.82673   1.87111   1.91621
 Alpha virt. eigenvalues --    1.93200   1.95199   2.01235   2.01487   2.03583
 Alpha virt. eigenvalues --    2.08551   2.12122   2.16747   2.18964   2.19512
 Alpha virt. eigenvalues --    2.25816   2.34338   2.48685   2.61748   2.66045
 Alpha virt. eigenvalues --    2.66509   2.73450   2.79069   2.91536   3.00605
 Alpha virt. eigenvalues --    3.00722   3.58486   3.81768   3.86791   3.93200
 Alpha virt. eigenvalues --    4.29361   4.30439   4.43410   5.06069
          Condensed to atoms (all electrons):
               1          2          3          4          5          6
     1  C    4.736736   0.213409   0.203849   0.229549   0.088011  -0.031950
     2  F    0.213409   9.074776  -0.033964  -0.034405   0.008866   0.000225
     3  F    0.203849  -0.033964   9.087751  -0.033906   0.013251  -0.000453
     4  F    0.229549  -0.034405  -0.033906   9.063726   0.004526   0.000044
     5  S    0.088011   0.008866   0.013251   0.004526  13.661204   0.435845
     6  O   -0.031950   0.000225  -0.000453   0.000044   0.435845   8.173522
     7  O   -0.037932  -0.000087   0.000234   0.000135   0.464829  -0.044696
     8  O   -0.026327  -0.000064   0.000005   0.000224   0.172439  -0.056317
     9  H    0.001133  -0.000001  -0.000350  -0.000005  -0.000454   0.007702
               7          8          9
     1  C   -0.037932  -0.026327   0.001133
     2  F   -0.000087  -0.000064  -0.000001
     3  F    0.000234   0.000005  -0.000350
     4  F    0.000135   0.000224  -0.000005
     5  S    0.464829   0.172439  -0.000454
     6  O   -0.044696  -0.056317   0.007702
     7  O    8.098997  -0.050387   0.000746
     8  O   -0.050387   8.345539   0.237472
     9  H    0.000746   0.237472   0.295355
 Mulliken charges:
               1
     1  C    0.623520
     2  F   -0.228756
     3  F   -0.236417
     4  F   -0.229888
     5  S    1.151482
     6  O   -0.483922
     7  O   -0.431838
     8  O   -0.622584
     9  H    0.458403
 Sum of Mulliken charges =   0.00000
 Mulliken charges with hydrogens summed into heavy atoms:
               1
     1  C    0.623520
     2  F   -0.228756
     3  F   -0.236417
     4  F   -0.229888
     5  S    1.151482
     6  O   -0.483922
     7  O   -0.431838
     8  O   -0.164181
 Electronic spatial extent (au):  <R**2>=            909.2716
 Charge=              0.0000 electrons
 Dipole moment (field-independent basis, Debye):
    X=             -0.4815    Y=              2.1957    Z=              0.4108  Tot=              2.2852
 Quadrupole moment (field-independent basis, Debye-Ang):
   XX=            -49.0047   YY=            -48.1563   ZZ=            -52.8056
   XY=              4.9827   XZ=              2.0975   YZ=              2.0998
 Traceless Quadrupole moment (field-independent basis, Debye-Ang):
   XX=              0.9842   YY=              1.8326   ZZ=             -2.8167
   XY=              4.9827   XZ=              2.0975   YZ=              2.0998
 Octapole moment (field-independent basis, Debye-Ang**2):
  XXX=              1.2092  YYY=             36.9164  ZZZ=             -3.9845  XYY=              2.3497
  XXY=             18.1369  XXZ=              5.0583  XZZ=             -2.9036  YZZ=             12.9225
  YYZ=              6.0477  XYZ=              3.2248
 Hexadecapole moment (field-independent basis, Debye-Ang**3):
 XXXX=           -460.3652 YYYY=           -214.5509 ZZZZ=           -236.7656 XXXY=             13.5326
 XXXZ=            -26.8830 YYYX=             14.3982 YYYZ=              2.2929 ZZZX=            -42.0694
 ZZZY=              0.7836 XXYY=           -111.1280 XXZZ=           -117.4838 YYZZ=            -73.7438
 XXYZ=              4.0496 YYXZ=             -4.1103 ZZXY=              4.2032
 N-N= 5.565105964690D+02 E-N=-3.391649519393D+03  KE= 9.561060353723D+02
 Calling FoFJK, ICntrl=      2127 FMM=F ISym2X=0 I1Cent= 0 IOpClX= 0 NMat=1 NMatS=1 NMatT=0.
 -------------------------------------------------------------------
 Center     Atomic                   Forces (Hartrees/Bohr)
 Number     Number              X              Y              Z
 -------------------------------------------------------------------
      1        6          -0.061021863    0.007333351   -0.019071673
      2        9           0.015491709   -0.004689572    0.024443262
      3        9           0.022359815   -0.017529931   -0.004856438
      4        9           0.025964313    0.015785547   -0.000848552
      5       16           0.040996497    0.005269379    0.008044169
      6        8          -0.015916652   -0.006714957    0.009008666
      7        8          -0.016919950   -0.003507262   -0.005743958
      8        8          -0.006010803    0.008087526   -0.008394143
      9        1          -0.004943066   -0.004034082   -0.002581332
 -------------------------------------------------------------------
 Cartesian Forces:  Max     0.061021863 RMS     0.018717441
 TRJ-TRJ-TRJ-TRJ-TRJ-TRJ-TRJ-TRJ-TRJ-TRJ-TRJ-TRJ-TRJ-TRJ-TRJ-TRJ-TRJ-TRJ

 ADMP step      0
 Frobenius norm of [F,P] =     1.099986D-12
 Current gradient on entry to l121
 I=    1 X=   6.102186297193D-02 Y=  -7.333351121178D-03 Z=   1.907167293444D-02
 I=    2 X=  -1.549170887602D-02 Y=   4.689571517519D-03 Z=  -2.444326202313D-02
 I=    3 X=  -2.235981539660D-02 Y=   1.752993077005D-02 Z=   4.856438116120D-03
 I=    4 X=  -2.596431264236D-02 Y=  -1.578554710192D-02 Z=   8.485522460191D-04
 I=    5 X=  -4.099649708304D-02 Y=  -5.269378994304D-03 Z=  -8.044168800576D-03
 I=    6 X=   1.591665158975D-02 Y=   6.714956887251D-03 Z=  -9.008665823728D-03
 I=    7 X=   1.691994972661D-02 Y=   3.507262179482D-03 Z=   5.743958253859D-03
 I=    8 X=   6.010803315776D-03 Y=  -8.087526340592D-03 Z=   8.394143098251D-03
 I=    9 X=   4.943066394020D-03 Y=   4.034082203840D-03 Z=   2.581331999030D-03

 Summary information for step      0
 Time (fs)     0.000000
 EKinC      =      0.1000000; EKinPA =      0.0000000; EKinPB =      0.0000000
 EKin       =      0.1000000; EPot   =   -961.9888344; ETot   =   -961.8888344
 ETot-EKinP =   -961.8888344
 Integrand for the Velocity-Velocity Auto-Correlation  Function =   1.875165883249D-01
 Angular momentum
   JX =  0.1246633313D-13  JY = -0.3801697863D-13  JZ = -0.1160197614D-13
 Jtot =  0.4165700393D-13 H-BAR;  J (Quantum Number) =  0.0000000000D+00
 Total energy  -9.618888344D+02 A.U.
 Total angular momentum   4.165700D-14 h-bar
 Tr(PA)-NA =  7.105D-15
 Tr(PA**2-PA) =  8.527D-14
 Tr[(PA**2-PA)**2] =  2.752D-16
 Cartesian coordinates:
 I=    1 X=  -1.754480355344D+00 Y=  -1.582519381711D-02 Z=  -4.759950802754D-01
 I=    2 X=  -2.015959869474D+00 Y=   3.421437362331D-01 Z=  -3.013199956626D+00
 I=    3 X=  -2.927100769064D+00 Y=   1.973636896150D+00 Z=   6.739675172107D-01
 I=    4 X=  -3.106021928264D+00 Y=  -2.123026669975D+00 Z=   1.281900459967D-01
 I=    5 X=   1.609526943657D+00 Y=  -2.728865282678D-01 Z=   5.024332974317D-01
 I=    6 X=   1.851137877313D+00 Y=  -3.147723078188D-01 Z=   3.235060421502D+00
 I=    7 X=   2.973582282973D+00 Y=  -2.080265947229D+00 Z=  -1.040240844905D+00
 I=    8 X=   2.629746614609D+00 Y=   2.512123803976D+00 Z=  -2.938254818673D-01
 I=    9 X=   3.254542983721D+00 Y=   3.353616957518D+00 Z=   1.238453277058D+00
 MW Cartesian velocity:
 I=    1 X=   6.435774708596D+13 Y=   6.968253833717D+13 Z=   7.520553455384D+13
 I=    2 X=   1.538703901279D+13 Y=  -4.441858179421D+13 Z=  -7.783954882835D+13
 I=    3 X=  -9.412099840709D+13 Y=   2.073362626746D+13 Z=  -3.527887519017D+12
 I=    4 X=  -9.232544015368D+13 Y=  -6.704028164624D+13 Z=  -1.720524941109D+13
 I=    5 X=   1.885090851428D+12 Y=  -1.158677492224D+14 Z=   1.153854190846D+12
 I=    6 X=   9.744927107820D+13 Y=  -2.381461910696D+13 Z=   3.573072399407D+13
 I=    7 X=  -9.378613215650D+13 Y=   1.312566307361D+14 Z=   3.943838207589D+13
 I=    8 X=   1.030394413606D+14 Y=   5.413459312134D+13 Z=  -8.199149429110D+13
 I=    9 X=   8.492438982056D+13 Y=   1.623812307172D+14 Z=   1.891529645280D+14
 TRJ-TRJ-TRJ-TRJ-TRJ-TRJ-TRJ-TRJ-TRJ-TRJ-TRJ-TRJ-TRJ-TRJ-TRJ-TRJ-TRJ-TRJ
                          Input orientation:                          
 ---------------------------------------------------------------------
 Center     Atomic      Atomic             Coordinates (Angstroms)
 Number     Number       Type             X           Y           Z
 ---------------------------------------------------------------------
      1          6           0       -0.927461   -0.007308   -0.250741
      2          9           0       -1.066611    0.180515   -1.595459
      3          9           0       -1.550095    1.044653    0.356605
      4          9           0       -1.644754   -1.124269    0.067626
      5         16           0        0.851746   -0.145489    0.265888
      6          8           0        0.980867   -0.166886    1.712394
      7          8           0        1.572308   -1.099093   -0.549951
      8          8           0        1.392964    1.330076   -0.156572
      9          1           0        1.726694    1.783207    0.665326
 ---------------------------------------------------------------------
                    Distance matrix (angstroms):
                    1          2          3          4          5
     1  C    0.000000
     2  F    1.364883   0.000000
     3  F    1.364978   2.188845   0.000000
     4  F    1.365089   2.191475   2.190135   0.000000
     5  S    1.857841   2.692765   2.682071   2.688834   0.000000
     6  O    2.742459   3.905732   3.116370   3.242796   1.452416
     7  O    2.744151   3.113580   3.894470   3.275900   1.447122
     8  O    2.679895   3.072686   3.001069   3.911752   1.627478
     9  H    3.330114   3.934758   3.373147   4.491918   2.155216
                    6          7          8          9
     6  O    0.000000
     7  O    2.517343   0.000000
     8  O    2.429765   2.467342   0.000000
     9  H    2.335696   3.131834   0.996102   0.000000
 Symmetry turned off by external request.
 Stoichiometry    CHF3O3S
 Framework group  C1[X(CHF3O3S)]
 Deg. of freedom    21
 Full point group                 C1      NOp   1
 Rotational constants (GHZ):           2.6246294           1.4591018           1.4401928
 Standard basis: 6-31G(d) (6D, 7F)
   126 basis functions,   252 primitive gaussians,   126 cartesian basis functions
    37 alpha electrons       37 beta electrons
       nuclear repulsion energy       556.2834379179 Hartrees.
 NAtoms=    9 NActive=    9 NUniq=    9 SFac= 1.00D+00 NAtFMM=   60 NAOKFM=F Big=F
 Integral buffers will be    131072 words long.
 Raffenetti 2 integral format.
 Two-electron integral symmetry is turned off.
 One-electron integrals computed using PRISM.
 NBasis=   126 RedAO= T EigKep=  2.59D-03  NBF=   126
 NBsUse=   126 1.00D-06 EigRej= -1.00D+00 NBFU=   126
 Keep R1 ints in memory in canonical form, NReq=39624265.
 Requested convergence on RMS density matrix=1.00D-08 within 128 cycles.
 Requested convergence on MAX density matrix=1.00D-06.
 Requested convergence on             energy=1.00D-06.
 No special actions if energy rises.
 SCF Done:  E(RB3LYP) =  -961.987683877     A.U. after    1 cycles
            NFock=  1  Conv=0.20D+01     -V/T= 2.0062
 Calling FoFJK, ICntrl=      2127 FMM=F ISym2X=0 I1Cent= 0 IOpClX= 0 NMat=1 NMatS=1 NMatT=0.
 -------------------------------------------------------------------
 Center     Atomic                   Forces (Hartrees/Bohr)
 Number     Number              X              Y              Z
 -------------------------------------------------------------------
      1        6          -0.130598322   -0.040395534   -0.063902198
      2        9           0.031875256    0.008194237    0.044151639
      3        9           0.046242746   -0.009307394    0.003698355
      4        9           0.055172919    0.033081718    0.011829838
      5       16           0.038517196    0.047247669    0.019444955
      6        8          -0.020006765   -0.011916244    0.003733343
      7        8          -0.006596264   -0.024469232   -0.012819309
      8        8          -0.002193207    0.013702164    0.016310267
      9        1          -0.012413558   -0.016137383   -0.022446890
 -------------------------------------------------------------------
 Cartesian Forces:  Max     0.130598322 RMS     0.038081115
 TRJ-TRJ-TRJ-TRJ-TRJ-TRJ-TRJ-TRJ-TRJ-TRJ-TRJ-TRJ-TRJ-TRJ-TRJ-TRJ-TRJ-TRJ

 ADMP step      1
 Frobenius norm of [F,P] =     5.104279D-02
 Current gradient on entry to l121
 I=    1 X=   1.305983215308D-01 Y=   4.039553404396D-02 Z=   6.390219808859D-02
 I=    2 X=  -3.187525552175D-02 Y=  -8.194237289357D-03 Z=  -4.415163896399D-02
 I=    3 X=  -4.624274590149D-02 Y=   9.307394213256D-03 Z=  -3.698354513247D-03
 I=    4 X=  -5.517291877990D-02 Y=  -3.308171807817D-02 Z=  -1.182983826822D-02
 I=    5 X=  -3.851719591708D-02 Y=  -4.724766856119D-02 Z=  -1.944495515445D-02
 I=    6 X=   2.000676481781D-02 Y=   1.191624398140D-02 Z=  -3.733342699469D-03
 I=    7 X=   6.596264429074D-03 Y=   2.446923237989D-02 Z=   1.281930897127D-02
 I=    8 X=   2.193207220841D-03 Y=  -1.370216354386D-02 Z=  -1.631026716008D-02
 I=    9 X=   1.241355812150D-02 Y=   1.613738285384D-02 Z=   2.244688969964D-02

 Summary information for step      1
 Time (fs)     0.100000
 EKinC      =      0.0988577; EKinPA =      0.0000171; EKinPB =      0.0000171
 EKin       =      0.0988920; EPot   =   -961.9876839; ETot   =   -961.8887919
 ETot-EKinP =   -961.8888262
 Adiabaticity Index =    9.2746D-27
 Total Fictitiious Kinetic Energy =      0.0003426
 Integrand for the Velocity-Velocity Auto-Correlation  Function =   1.864381671496D-01
 Angular momentum
   JX = -0.1596418558D-13  JY = -0.1544424962D-13  JZ = -0.3221487286D-13
 Jtot =  0.3913027090D-13 H-BAR;  J (Quantum Number) =  0.0000000000D+00
 Total energy  -9.618887919D+02  Delta-E   4.246089D-05 A.U.
 Total angular momentum   3.913027D-14  Delta-A  -2.526733D-15 h-bar
 Tr(PA)-NA = -1.421D-14
 Tr(PA**2-PA) =  1.279D-13
 Tr[(PA**2-PA)**2] =  2.337D-16
 Cartesian coordinates:
 I=    1 X=  -1.752646345971D+00 Y=  -1.381076725606D-02 Z=  -4.738315341549D-01
 I=    2 X=  -2.015603028975D+00 Y=   3.411235040416D-01 Z=  -3.014979762052D+00
 I=    3 X=  -2.929254626195D+00 Y=   1.974108252761D+00 Z=   6.738853799386D-01
 I=    4 X=  -3.108133701475D+00 Y=  -2.124560848856D+00 Z=   1.277951044916D-01
 I=    5 X=   1.609566293316D+00 Y=  -2.749349218550D-01 Z=   5.024548833288D-01
 I=    6 X=   1.853569831143D+00 Y=  -3.153697359061D-01 Z=   3.235956472056D+00
 I=    7 X=   2.971232297875D+00 Y=  -2.076985038015D+00 Z=  -1.039256411808D+00
 I=    8 X=   2.632321248558D+00 Y=   2.513479754130D+00 Z=  -2.958780552587D-01
 I=    9 X=   3.262979398419D+00 Y=   3.369773152927D+00 Z=   1.257282991448D+00
 MW Cartesian velocity:
 I=    1 X=   6.176541804239D+13 Y=   6.923307290408D+13 Z=   7.408110787802D+13
 I=    2 X=   1.589902735286D+13 Y=  -4.438530180450D+13 Z=  -7.710361208023D+13
 I=    3 X=  -9.338441206642D+13 Y=   2.044397881951D+13 Z=  -3.544611948094D+12
 I=    4 X=  -9.145155858989D+13 Y=  -6.651636705672D+13 Z=  -1.708726373889D+13
 I=    5 X=   2.544323997248D+12 Y=  -1.154315147899D+14 Z=   1.383114945400D+12
 I=    6 X=   9.702580760843D+13 Y=  -2.402858409850D+13 Z=   3.588225839240D+13
 I=    7 X=  -9.405943848298D+13 Y=   1.309288498201D+14 Z=   3.922596305176D+13
 I=    8 X=   1.029424741760D+14 Y=   5.439081869779D+13 Z=  -8.189906964982D+13
 I=    9 X=   8.410338864164D+13 Y=   1.614509576666D+14 Z=   1.879810921096D+14
 TRJ-TRJ-TRJ-TRJ-TRJ-TRJ-TRJ-TRJ-TRJ-TRJ-TRJ-TRJ-TRJ-TRJ-TRJ-TRJ-TRJ-TRJ
                          Input orientation:                          
 ---------------------------------------------------------------------
 Center     Atomic      Atomic             Coordinates (Angstroms)
 Number     Number       Type             X           Y           Z
 ---------------------------------------------------------------------
      1          6           0       -0.926544   -0.006259   -0.249622
      2          9           0       -1.066414    0.179977   -1.596389
      3          9           0       -1.551223    1.044900    0.356562
      4          9           0       -1.645857   -1.125072    0.067420
      5         16           0        0.851773   -0.146566    0.265902
      6          8           0        0.982148   -0.167206    1.712870
      7          8           0        1.571063   -1.097365   -0.549434
      8          8           0        1.394326    1.330798   -0.157653
      9          1           0        1.731096    1.791678    0.675179
 ---------------------------------------------------------------------
                    Distance matrix (angstroms):
                    1          2          3          4          5
     1  C    0.000000
     2  F    1.366758   0.000000
     3  F    1.364778   2.190240   0.000000
     4  F    1.367359   2.192526   2.191196   0.000000
     5  S    1.856842   2.693362   2.683691   2.689800   0.000000
     6  O    2.742332   3.907472   3.118772   3.245215   1.452976
     7  O    2.741977   3.111913   3.893429   3.275645   1.444358
     8  O    2.680041   3.074019   3.003733   3.914674   1.629837
     9  H    3.339295   3.947615   3.381244   4.503401   2.167374
                    6          7          8          9
     6  O    0.000000
     7  O    2.515956   0.000000
     8  O    2.431617   2.465908   0.000000
     9  H    2.339862   3.141951   1.009670   0.000000
 Symmetry turned off by external request.
 Stoichiometry    CHF3O3S
 Framework group  C1[X(CHF3O3S)]
 Deg. of freedom    21
 Full point group                 C1      NOp   1
 Rotational constants (GHZ):           2.6230777           1.4578492           1.4394261
 Standard basis: 6-31G(d) (6D, 7F)
   126 basis functions,   252 primitive gaussians,   126 cartesian basis functions
    37 alpha electrons       37 beta electrons
       nuclear repulsion energy       556.0605425637 Hartrees.
 NAtoms=    9 NActive=    9 NUniq=    9 SFac= 1.00D+00 NAtFMM=   60 NAOKFM=F Big=F
 Integral buffers will be    131072 words long.
 Raffenetti 2 integral format.
 Two-electron integral symmetry is turned off.
 One-electron integrals computed using PRISM.
 NBasis=   126 RedAO= T EigKep=  2.59D-03  NBF=   126
 NBsUse=   126 1.00D-06 EigRej= -1.00D+00 NBFU=   126
 Keep R1 ints in memory in canonical form, NReq=39624265.
 Requested convergence on RMS density matrix=1.00D-08 within 128 cycles.
 Requested convergence on MAX density matrix=1.00D-06.
 Requested convergence on             energy=1.00D-06.
 No special actions if energy rises.
 SCF Done:  E(RB3LYP) =  -961.985738602     A.U. after    1 cycles
            NFock=  1  Conv=0.20D+01     -V/T= 2.0062
 Calling FoFJK, ICntrl=      2127 FMM=F ISym2X=0 I1Cent= 0 IOpClX= 0 NMat=1 NMatS=1 NMatT=0.
 -------------------------------------------------------------------
 Center     Atomic                   Forces (Hartrees/Bohr)
 Number     Number              X              Y              Z
 -------------------------------------------------------------------
      1        6          -0.172944851   -0.074050735   -0.094382578
      2        9           0.040780025    0.016603977    0.058675167
      3        9           0.060607237   -0.004143805    0.009145911
      4        9           0.073341132    0.046482434    0.019418928
      5       16           0.037127162    0.080813795    0.028553632
      6        8          -0.023330526   -0.015926366   -0.000264213
      7        8           0.002053393   -0.041487883   -0.018935953
      8        8           0.000709859    0.017594946    0.035986043
      9        1          -0.018343430   -0.025886363   -0.038196937
 -------------------------------------------------------------------
 Cartesian Forces:  Max     0.172944851 RMS     0.053420419
 TRJ-TRJ-TRJ-TRJ-TRJ-TRJ-TRJ-TRJ-TRJ-TRJ-TRJ-TRJ-TRJ-TRJ-TRJ-TRJ-TRJ-TRJ

 ADMP step      2
 Frobenius norm of [F,P] =     8.253397D-02
 Current gradient on entry to l121
 I=    1 X=   1.729448508453D-01 Y=   7.405073459255D-02 Z=   9.438257773398D-02
 I=    2 X=  -4.078002494478D-02 Y=  -1.660397693169D-02 Z=  -5.867516681416D-02
 I=    3 X=  -6.060723689332D-02 Y=   4.143805067880D-03 Z=  -9.145911088350D-03
 I=    4 X=  -7.334113155750D-02 Y=  -4.648243368818D-02 Z=  -1.941892807780D-02
 I=    5 X=  -3.712716217047D-02 Y=  -8.081379486219D-02 Z=  -2.855363186023D-02
 I=    6 X=   2.333052588856D-02 Y=   1.592636598557D-02 Z=   2.642130053587D-04
 I=    7 X=  -2.053392778667D-03 Y=   4.148788288289D-02 Z=   1.893595289070D-02
 I=    8 X=  -7.098586004393D-04 Y=  -1.759494649819D-02 Z=  -3.598604297219D-02
 I=    9 X=   1.834343021128D-02 Y=   2.588636345124D-02 Z=   3.819693718282D-02

 Summary information for step      2
 Time (fs)     0.200000
 EKinC      =      0.0965610; EKinPA =      0.0002258; EKinPB =      0.0002258
 EKin       =      0.0970126; EPot   =   -961.9857386; ETot   =   -961.8887260
 ETot-EKinP =   -961.8891776
 Adiabaticity Index =    5.5796D-04
 Integrand for the Velocity-Velocity Auto-Correlation  Function =   1.842356643265D-01
 Angular momentum
   JX = -0.3695938350D-14  JY = -0.8148815945D-14  JZ = -0.5571902522D-13
 Jtot =  0.5643290647D-13 H-BAR;  J (Quantum Number) =  0.0000000000D+00
 Total energy  -9.618887260D+02  Delta-E   6.595179D-05 A.U.
 Total angular momentum   5.643291D-14  Delta-A   1.730264D-14 h-bar
 Tr(PA)-NA =  0.000D+00
 Tr(PA**2-PA) = -1.458D-10
 Tr[(PA**2-PA)**2] =  5.970D-13
 Cartesian coordinates:
 I=    1 X=  -1.750914327271D+00 Y=  -1.182802048931D-02 Z=  -4.717180055179D-01
 I=    2 X=  -2.015230341413D+00 Y=   3.401071133357D-01 Z=  -3.016737861641D+00
 I=    3 X=  -2.931385719806D+00 Y=   1.974574969650D+00 Z=   6.738048724260D-01
 I=    4 X=  -3.110218189879D+00 Y=  -2.126078778460D+00 Z=   1.274059956203D-01
 I=    5 X=   1.609616938375D+00 Y=  -2.769694306896D-01 Z=   5.024822192826D-01
 I=    6 X=   1.855989938832D+00 Y=  -3.159739279974D-01 Z=   3.236854819606D+00
 I=    7 X=   2.968878563486D+00 Y=  -2.073718464145D+00 Z=  -1.038279234993D+00
 I=    8 X=   2.634894556481D+00 Y=   2.514843777196D+00 Z=  -2.979210862647D-01
 I=    9 X=   3.271298233967D+00 Y=   3.385781549716D+00 Z=   1.275903257262D+00
 MW Cartesian velocity:
 I=    1 X=   5.765971177538D+13 Y=   6.767870790071D+13 Z=   7.193549129687D+13
 I=    2 X=   1.668657067290D+13 Y=  -4.413057629059D+13 Z=  -7.600203182999D+13
 I=    3 X=  -9.223849949696D+13 Y=   2.029649174946D+13 Z=  -3.417210690494D+12
 I=    4 X=  -9.006595266078D+13 Y=  -6.566523860221D+13 Z=  -1.675067871008D+13
 I=    5 X=   3.171577991389D+12 Y=  -1.143675254637D+14 Z=   1.784472541882D+12
 I=    6 X=   9.651224853898D+13 Y=  -2.434295907742D+13 Z=   3.592838818659D+13
 I=    7 X=  -9.410658887417D+13 Y=   1.301562120412D+14 Z=   3.886698033077D+13
 I=    8 X=   1.029227492356D+14 Y=   5.475994183319D+13 Z=  -8.128767347616D+13
 I=    9 X=   8.263947457865D+13 Y=   1.595206214530D+14 Z=   1.851375564684D+14
 TRJ-TRJ-TRJ-TRJ-TRJ-TRJ-TRJ-TRJ-TRJ-TRJ-TRJ-TRJ-TRJ-TRJ-TRJ-TRJ-TRJ-TRJ
                          Input orientation:                          
 ---------------------------------------------------------------------
 Center     Atomic      Atomic             Coordinates (Angstroms)
 Number     Number       Type             X           Y           Z
 ---------------------------------------------------------------------
      1          6           0       -0.925699   -0.005241   -0.248543
      2          9           0       -1.066206    0.179443   -1.597304
      3          9           0       -1.552334    1.045146    0.356522
      4          9           0       -1.646940   -1.125864    0.067220
      5         16           0        0.851805   -0.147630    0.265921
      6          8           0        0.983421   -0.167531    1.713345
      7          8           0        1.569818   -1.095649   -0.548922
      8          8           0        1.395688    1.331525   -0.158723
      9          1           0        1.735407    1.800024    0.684843
 ---------------------------------------------------------------------
                    Distance matrix (angstroms):
                    1          2          3          4          5
     1  C    0.000000
     2  F    1.368578   0.000000
     3  F    1.364583   2.191620   0.000000
     4  F    1.369559   2.193563   2.192243   0.000000
     5  S    1.855928   2.693947   2.685295   2.690753   0.000000
     6  O    2.742277   3.909189   3.121155   3.247604   1.453532
     7  O    2.739858   3.110239   3.892386   3.275375   1.441614
     8  O    2.680270   3.075342   3.006381   3.917576   1.632186
     9  H    3.348384   3.960242   3.389230   4.514704   2.179359
                    6          7          8          9
     6  O    0.000000
     7  O    2.514581   0.000000
     8  O    2.433469   2.464498   0.000000
     9  H    2.344050   3.151907   1.022988   0.000000
 Symmetry turned off by external request.
 Stoichiometry    CHF3O3S
 Framework group  C1[X(CHF3O3S)]
 Deg. of freedom    21
 Full point group                 C1      NOp   1
 Rotational constants (GHZ):           2.6215343           1.4566054           1.4386627
 Standard basis: 6-31G(d) (6D, 7F)
   126 basis functions,   252 primitive gaussians,   126 cartesian basis functions
    37 alpha electrons       37 beta electrons
       nuclear repulsion energy       555.8425452291 Hartrees.
 NAtoms=    9 NActive=    9 NUniq=    9 SFac= 1.00D+00 NAtFMM=   60 NAOKFM=F Big=F
 Integral buffers will be    131072 words long.
 Raffenetti 2 integral format.
 Two-electron integral symmetry is turned off.
 One-electron integrals computed using PRISM.
 NBasis=   126 RedAO= T EigKep=  2.59D-03  NBF=   126
 NBsUse=   126 1.00D-06 EigRej= -1.00D+00 NBFU=   126
 Keep R1 ints in memory in canonical form, NReq=39624265.
 Requested convergence on RMS density matrix=1.00D-08 within 128 cycles.
 Requested convergence on MAX density matrix=1.00D-06.
 Requested convergence on             energy=1.00D-06.
 No special actions if energy rises.
 SCF Done:  E(RB3LYP) =  -961.983952823     A.U. after    1 cycles
            NFock=  1  Conv=0.20D+01     -V/T= 2.0062
 Calling FoFJK, ICntrl=      2127 FMM=F ISym2X=0 I1Cent= 0 IOpClX= 0 NMat=1 NMatS=1 NMatT=0.
 -------------------------------------------------------------------
 Center     Atomic                   Forces (Hartrees/Bohr)
 Number     Number              X              Y              Z
 -------------------------------------------------------------------
      1        6          -0.174262554   -0.084780343   -0.102191728
      2        9           0.038743326    0.017868170    0.064838692
      3        9           0.060498614   -0.003852975    0.009748420
      4        9           0.074847672    0.053294889    0.019212923
      5       16           0.037524958    0.099909075    0.033558714
      6        8          -0.025358487   -0.017931644   -0.002152280
      7        8           0.007590818   -0.051505674   -0.023190014
      8        8           0.002743758    0.019491677    0.048742854
      9        1          -0.022328106   -0.032493174   -0.048567582
 -------------------------------------------------------------------
 Cartesian Forces:  Max     0.174262554 RMS     0.057739631
 TRJ-TRJ-TRJ-TRJ-TRJ-TRJ-TRJ-TRJ-TRJ-TRJ-TRJ-TRJ-TRJ-TRJ-TRJ-TRJ-TRJ-TRJ

 ADMP step      3
 Frobenius norm of [F,P] =     8.600360D-02
 Current gradient on entry to l121
 I=    1 X=   1.742625536261D-01 Y=   8.478034318544D-02 Z=   1.021917280595D-01
 I=    2 X=  -3.874332627500D-02 Y=  -1.786816975272D-02 Z=  -6.483869234447D-02
 I=    3 X=  -6.049861416777D-02 Y=   3.852975091274D-03 Z=  -9.748419844122D-03
 I=    4 X=  -7.484767159995D-02 Y=  -5.329488911577D-02 Z=  -1.921292299377D-02
 I=    5 X=  -3.752495847882D-02 Y=  -9.990907479087D-02 Z=  -3.355871442047D-02
 I=    6 X=   2.535848680134D-02 Y=   1.793164378922D-02 Z=   2.152280351410D-03
 I=    7 X=  -7.590818243877D-03 Y=   5.150567432646D-02 Z=   2.319001392235D-02
 I=    8 X=  -2.743757504826D-03 Y=  -1.949167657437D-02 Z=  -4.874285449898D-02
 I=    9 X=   2.232810584285D-02 Y=   3.249317384141D-02 Z=   4.856758176854D-02

 Summary information for step      3
 Time (fs)     0.300000
 EKinC      =      0.0935762; EKinPA =      0.0008337; EKinPB =      0.0008337
 EKin       =      0.0952437; EPot   =   -961.9839528; ETot   =   -961.8887091
 ETot-EKinP =   -961.8903766
 Adiabaticity Index =    2.4468D-03
 Integrand for the Velocity-Velocity Auto-Correlation  Function =   1.813084944927D-01
 Angular momentum
   JX = -0.8476803911D-14  JY = -0.2953819767D-13  JZ = -0.4463130469D-13
 Jtot =  0.5418777246D-13 H-BAR;  J (Quantum Number) =  0.0000000000D+00
 Total energy  -9.618887091D+02  Delta-E   1.687089D-05 A.U.
 Total angular momentum   5.418777D-14  Delta-A  -2.245134D-15 h-bar
 Tr(PA)-NA =  0.000D+00
 Tr(PA**2-PA) =  1.080D-10
 Tr[(PA**2-PA)**2] =  4.416D-13
 Cartesian coordinates:
 I=    1 X=  -1.749317360960D+00 Y=  -9.903335233569D-03 Z=  -4.696783366285D-01
 I=    2 X=  -2.014837364430D+00 Y=   3.390985692434D-01 Z=  -3.018467120975D+00
 I=    3 X=  -2.933486996652D+00 Y=   1.975039558805D+00 Z=   6.737285809701D-01
 I=    4 X=  -3.112266384458D+00 Y=  -2.127573903247D+00 Z=   1.270264983445D-01
 I=    5 X=   1.609678474495D+00 Y=  -2.789801901470D-01 Z=   5.025180015100D-01
 I=    6 X=   1.858396210627D+00 Y=  -3.165870773322D-01 Z=   3.237753177016D+00
 I=    7 X=   2.966526220493D+00 Y=  -2.070476192961D+00 Z=  -1.037312753886D+00
 I=    8 X=   2.637468204026D+00 Y=   2.516218186441D+00 Z=  -2.999430849882D-01
 I=    9 X=   3.279443004690D+00 Y=   3.401553179570D+00 Z=   1.294166476627D+00
 MW Cartesian velocity:
 I=    1 X=   5.296330582558D+13 Y=   6.552166365023D+13 Z=   6.927236771136D+13
 I=    2 X=   1.754780446927D+13 Y=  -4.377608980306D+13 Z=  -7.467775753149D+13
 I=    3 X=  -9.094003029700D+13 Y=   2.020658180653D+13 Z=  -3.226109955755D+12
 I=    4 X=  -8.846745469313D+13 Y=  -6.459843290466D+13 Z=  -1.633196917441D+13
 I=    5 X=   3.790889967613D+12 Y=  -1.128661177263D+14 Z=   2.303286207429D+12
 I=    6 X=   9.593657618289D+13 Y=  -2.472359046505D+13 Z=   3.590617769504D+13
 I=    7 X=  -9.398616642834D+13 Y=   1.290669016924D+14 Z=   3.838888463138D+13
 I=    8 X=   1.029596874302D+14 Y=   5.519778039703D+13 Z=  -8.029858981842D+13
 I=    9 X=   8.070607436401D+13 Y=   1.568384177561D+14 Z=   1.810603120165D+14
 TRJ-TRJ-TRJ-TRJ-TRJ-TRJ-TRJ-TRJ-TRJ-TRJ-TRJ-TRJ-TRJ-TRJ-TRJ-TRJ-TRJ-TRJ
                          Input orientation:                          
 ---------------------------------------------------------------------
 Center     Atomic      Atomic             Coordinates (Angstroms)
 Number     Number       Type             X           Y           Z
 ---------------------------------------------------------------------
      1          6           0       -0.924926   -0.004257   -0.247506
      2          9           0       -1.065988    0.178914   -1.598202
      3          9           0       -1.553431    1.045391    0.356484
      4          9           0       -1.648005   -1.126641    0.067024
      5         16           0        0.851844   -0.148678    0.265945
      6          8           0        0.984686   -0.167860    1.713820
      7          8           0        1.568576   -1.093949   -0.548418
      8          8           0        1.397051    1.332259   -0.159778
      9          1           0        1.739605    1.808213    0.694267
 ---------------------------------------------------------------------
                    Distance matrix (angstroms):
                    1          2          3          4          5
     1  C    0.000000
     2  F    1.370340   0.000000
     3  F    1.364398   2.192984   0.000000
     4  F    1.371684   2.194583   2.193275   0.000000
     5  S    1.855101   2.694520   2.686883   2.691695   0.000000
     6  O    2.742295   3.910883   3.123520   3.249963   1.454083
     7  O    2.737796   3.108561   3.891342   3.275092   1.438898
     8  O    2.680587   3.076659   3.009013   3.920458   1.634523
     9  H    3.357336   3.972579   3.397069   4.525782   2.191119
                    6          7          8          9
     6  O    0.000000
     7  O    2.513222   0.000000
     8  O    2.435318   2.463117   0.000000
     9  H    2.348245   3.161655   1.035987   0.000000
 Symmetry turned off by external request.
 Stoichiometry    CHF3O3S
 Framework group  C1[X(CHF3O3S)]
 Deg. of freedom    21
 Full point group                 C1      NOp   1
 Rotational constants (GHZ):           2.6200021           1.4553713           1.4379028
 Standard basis: 6-31G(d) (6D, 7F)
   126 basis functions,   252 primitive gaussians,   126 cartesian basis functions
    37 alpha electrons       37 beta electrons
       nuclear repulsion energy       555.6296930762 Hartrees.
 NAtoms=    9 NActive=    9 NUniq=    9 SFac= 1.00D+00 NAtFMM=   60 NAOKFM=F Big=F
 Integral buffers will be    131072 words long.
 Raffenetti 2 integral format.
 Two-electron integral symmetry is turned off.
 One-electron integrals computed using PRISM.
 NBasis=   126 RedAO= T EigKep=  2.59D-03  NBF=   126
 NBsUse=   126 1.00D-06 EigRej= -1.00D+00 NBFU=   126
 Keep R1 ints in memory in canonical form, NReq=39624265.
 Requested convergence on RMS density matrix=1.00D-08 within 128 cycles.
 Requested convergence on MAX density matrix=1.00D-06.
 Requested convergence on             energy=1.00D-06.
 No special actions if energy rises.
 SCF Done:  E(RB3LYP) =  -961.982599549     A.U. after    1 cycles
            NFock=  1  Conv=0.20D+01     -V/T= 2.0062
 Calling FoFJK, ICntrl=      2127 FMM=F ISym2X=0 I1Cent= 0 IOpClX= 0 NMat=1 NMatS=1 NMatT=0.
 -------------------------------------------------------------------
 Center     Atomic                   Forces (Hartrees/Bohr)
 Number     Number              X              Y              Z
 -------------------------------------------------------------------
      1        6          -0.138643159   -0.071684825   -0.087566554
      2        9           0.027602289    0.012128692    0.061868378
      3        9           0.047294369   -0.008021200    0.005946128
      4        9           0.061149573    0.052259369    0.012026581
      5       16           0.039335883    0.102621712    0.033807288
      6        8          -0.025868286   -0.017645404   -0.001745635
      7        8           0.009442971   -0.053448777   -0.025187120
      8        8           0.004096730    0.019685824    0.054445254
      9        1          -0.024410370   -0.035895391   -0.053594319
 -------------------------------------------------------------------
 Cartesian Forces:  Max     0.138643159 RMS     0.051505950
 TRJ-TRJ-TRJ-TRJ-TRJ-TRJ-TRJ-TRJ-TRJ-TRJ-TRJ-TRJ-TRJ-TRJ-TRJ-TRJ-TRJ-TRJ

 ADMP step      4
 Frobenius norm of [F,P] =     6.955546D-02
 Current gradient on entry to l121
 I=    1 X=   1.386431593308D-01 Y=   7.168482549629D-02 Z=   8.756655444322D-02
 I=    2 X=  -2.760228926771D-02 Y=  -1.212869233788D-02 Z=  -6.186837825741D-02
 I=    3 X=  -4.729436944754D-02 Y=   8.021199702114D-03 Z=  -5.946127867960D-03
 I=    4 X=  -6.114957333516D-02 Y=  -5.225936863037D-02 Z=  -1.202658078809D-02
 I=    5 X=  -3.933588326365D-02 Y=  -1.026217116433D-01 Z=  -3.380728829024D-02
 I=    6 X=   2.586828601575D-02 Y=   1.764540431698D-02 Z=   1.745635269337D-03
 I=    7 X=  -9.442970535321D-03 Y=   5.344877654129D-02 Z=   2.518712017377D-02
 I=    8 X=  -4.096729930312D-03 Y=  -1.968582427370D-02 Z=  -5.444525383290D-02
 I=    9 X=   2.441037043304D-02 Y=   3.589539082847D-02 Z=   5.359431915021D-02

 Summary information for step      4
 Time (fs)     0.400000
 EKinC      =      0.0904176; EKinPA =      0.0017199; EKinPB =      0.0017199
 EKin       =      0.0938575; EPot   =   -961.9825995; ETot   =   -961.8887421
 ETot-EKinP =   -961.8921819
 Adiabaticity Index =    4.3399D-03
 Integrand for the Velocity-Velocity Auto-Correlation  Function =   1.781355040580D-01
 Angular momentum
   JX =  0.2012554255D-14  JY = -0.2474409125D-13  JZ = -0.5858618977D-13
 Jtot =  0.6362909758D-13 H-BAR;  J (Quantum Number) =  0.0000000000D+00
 Total energy  -9.618887421D+02  Delta-E  -3.298695D-05 A.U.
 Total angular momentum   6.362910D-14  Delta-A   9.441325D-15 h-bar
 Tr(PA)-NA = -1.421D-14
 Tr(PA**2-PA) =  1.254D-10
 Tr[(PA**2-PA)**2] =  5.137D-13
 Cartesian coordinates:
 I=    1 X=  -1.747856489383D+00 Y=  -8.045125474688D-03 Z=  -4.677185635033D-01
 I=    2 X=  -2.014425159091D+00 Y=   3.380984441765D-01 Z=  -3.020164456138D+00
 I=    3 X=  -2.935558509906D+00 Y=   1.975502150169D+00 Z=   6.736568421291D-01
 I=    4 X=  -3.114277525663D+00 Y=  -2.129042882391D+00 Z=   1.266566019916D-01
 I=    5 X=   1.609751025100D+00 Y=  -2.809615930227D-01 Z=   5.025636883065D-01
 I=    6 X=   1.860787530123D+00 Y=  -3.172103040180D-01 Z=   3.238650413865D+00
 I=    7 X=   2.964178508185D+00 Y=  -2.067264093267D+00 Z=  -1.036359485656D+00
 I=    8 X=   2.640043359152D+00 Y=   2.517604104915D+00 Z=  -3.019366539504D-01
 I=    9 X=   3.287376664267D+00 Y=   3.417027222215D+00 Z=   1.311974465406D+00
 MW Cartesian velocity:
 I=    1 X=   4.873003715446D+13 Y=   6.339670050302D+13 Z=   6.670515234861D+13
 I=    2 X=   1.826282020360D+13 Y=  -4.346967610001D+13 Z=  -7.331583113823D+13
 I=    3 X=  -8.978389848014D+13 Y=   2.007502433263D+13 Z=  -3.064791656875D+12
 I=    4 X=  -8.700010677375D+13 Y=  -6.346943282702D+13 Z=  -1.598790074958D+13
 I=    5 X=   4.428941145862D+12 Y=  -1.111839372389D+14 Z=   2.864194017064D+12
 I=    6 X=   9.533603721581D+13 Y=  -2.512443653711D+13 Z=   3.586414182967D+13
 I=    7 X=  -9.378098570926D+13 Y=   1.278373239644D+14 Z=   3.783328687376D+13
 I=    8 X=   1.030357368696D+14 Y=   5.566006134854D+13 Z=  -7.909679846282D+13
 I=    9 X=   7.849686615569D+13 Y=   1.536887982572D+14 Z=   1.762452862563D+14
 TRJ-TRJ-TRJ-TRJ-TRJ-TRJ-TRJ-TRJ-TRJ-TRJ-TRJ-TRJ-TRJ-TRJ-TRJ-TRJ-TRJ-TRJ
                          Input orientation:                          
 ---------------------------------------------------------------------
 Center     Atomic      Atomic             Coordinates (Angstroms)
 Number     Number       Type             X           Y           Z
 ---------------------------------------------------------------------
      1          6           0       -0.924210   -0.003304   -0.246505
      2          9           0       -1.065763    0.178388   -1.599084
      3          9           0       -1.554515    1.045633    0.356447
      4          9           0       -1.649053   -1.127405    0.066831
      5         16           0        0.851888   -0.149711    0.265975
      6          8           0        0.985944   -0.168196    1.714294
      7          8           0        1.567336   -1.092266   -0.547921
      8          8           0        1.398415    1.332998   -0.160816
      9          1           0        1.743682    1.816227    0.703424
 ---------------------------------------------------------------------
                    Distance matrix (angstroms):
                    1          2          3          4          5
     1  C    0.000000
     2  F    1.372049   0.000000
     3  F    1.364223   2.194333   0.000000
     4  F    1.373747   2.195586   2.194290   0.000000
     5  S    1.854345   2.695084   2.688458   2.692629   0.000000
     6  O    2.742373   3.912556   3.125869   3.252295   1.454628
     7  O    2.735780   3.106882   3.890302   3.274800   1.436211
     8  O    2.680976   3.077972   3.011633   3.923323   1.636847
     9  H    3.366111   3.984600   3.404748   4.536614   2.202628
                    6          7          8          9
     6  O    0.000000
     7  O    2.511880   0.000000
     8  O    2.437161   2.461766   0.000000
     9  H    2.352437   3.171166   1.048633   0.000000
 Symmetry turned off by external request.
 Stoichiometry    CHF3O3S
 Framework group  C1[X(CHF3O3S)]
 Deg. of freedom    21
 Full point group                 C1      NOp   1
 Rotational constants (GHZ):           2.6184830           1.4541464           1.4371455
 Standard basis: 6-31G(d) (6D, 7F)
   126 basis functions,   252 primitive gaussians,   126 cartesian basis functions
    37 alpha electrons       37 beta electrons
       nuclear repulsion energy       555.4218731889 Hartrees.
 NAtoms=    9 NActive=    9 NUniq=    9 SFac= 1.00D+00 NAtFMM=   60 NAOKFM=F Big=F
 Integral buffers will be    131072 words long.
 Raffenetti 2 integral format.
 Two-electron integral symmetry is turned off.
 One-electron integrals computed using PRISM.
 NBasis=   126 RedAO= T EigKep=  2.59D-03  NBF=   126
 NBsUse=   126 1.00D-06 EigRej= -1.00D+00 NBFU=   126
 Keep R1 ints in memory in canonical form, NReq=39624265.
 Requested convergence on RMS density matrix=1.00D-08 within 128 cycles.
 Requested convergence on MAX density matrix=1.00D-06.
 Requested convergence on             energy=1.00D-06.
 No special actions if energy rises.
 SCF Done:  E(RB3LYP) =  -961.981254776     A.U. after    1 cycles
            NFock=  1  Conv=0.20D+01     -V/T= 2.0063
 Calling FoFJK, ICntrl=      2127 FMM=F ISym2X=0 I1Cent= 0 IOpClX= 0 NMat=1 NMatS=1 NMatT=0.
 -------------------------------------------------------------------
 Center     Atomic                   Forces (Hartrees/Bohr)
 Number     Number              X              Y              Z
 -------------------------------------------------------------------
      1        6          -0.085012835   -0.041635846   -0.058518654
      2        9           0.013292428    0.002105700    0.051526687
      3        9           0.027672926   -0.014333929   -0.000023760
      4        9           0.039628286    0.043989491    0.001572485
      5       16           0.041368722    0.091407375    0.030017311
      6        8          -0.024968419   -0.015356281    0.000473804
      7        8           0.008011169   -0.048407893   -0.025142352
      8        8           0.005026191    0.018920641    0.054553774
      9        1          -0.025018467   -0.036689258   -0.054459295
 -------------------------------------------------------------------
 Cartesian Forces:  Max     0.091407375 RMS     0.039844379
 TRJ-TRJ-TRJ-TRJ-TRJ-TRJ-TRJ-TRJ-TRJ-TRJ-TRJ-TRJ-TRJ-TRJ-TRJ-TRJ-TRJ-TRJ

 ADMP step      5
 Frobenius norm of [F,P] =     5.813145D-02
 Current gradient on entry to l121
 I=    1 X=   8.501283548100D-02 Y=   4.163584644675D-02 Z=   5.851865362925D-02
 I=    2 X=  -1.329242809029D-02 Y=  -2.105700315787D-03 Z=  -5.152668732601D-02
 I=    3 X=  -2.767292552462D-02 Y=   1.433392870642D-02 Z=   2.376048764141D-05
 I=    4 X=  -3.962828646580D-02 Y=  -4.398949119135D-02 Z=  -1.572484614798D-03
 I=    5 X=  -4.136872177458D-02 Y=  -9.140737495950D-02 Z=  -3.001731112851D-02
 I=    6 X=   2.496841938101D-02 Y=   1.535628142681D-02 Z=  -4.738043772363D-04
 I=    7 X=  -8.011168949992D-03 Y=   4.840789301169D-02 Z=   2.514235221784D-02
 I=    8 X=  -5.026190998921D-03 Y=  -1.892064118468D-02 Z=  -5.455377421277D-02
 I=    9 X=   2.501846694229D-02 Y=   3.668925805958D-02 Z=   5.445929532469D-02

 Summary information for step      5
 Time (fs)     0.500000
 EKinC      =      0.0874870; EKinPA =      0.0024974; EKinPB =      0.0024974
 EKin       =      0.0924818; EPot   =   -961.9812548; ETot   =   -961.8887730
 ETot-EKinP =   -961.8937678
 Adiabaticity Index =    4.5491D-03
 Integrand for the Velocity-Velocity Auto-Correlation  Function =   1.751273677184D-01
 Angular momentum
   JX =  0.3345067538D-14  JY = -0.2508165116D-13  JZ = -0.6229713115D-13
 Jtot =  0.6723995278D-13 H-BAR;  J (Quantum Number) =  0.0000000000D+00
 Total energy  -9.618887730D+02  Delta-E  -3.090962D-05 A.U.
 Total angular momentum   6.723995D-14  Delta-A   3.610855D-15 h-bar
 Tr(PA)-NA =  7.105D-15
 Tr(PA**2-PA) =  1.103D-10
 Tr[(PA**2-PA)**2] =  4.521D-13
 Cartesian coordinates:
 I=    1 X=  -1.746503930953D+00 Y=  -6.243125023454D-03 Z=  -4.658271128620D-01
 I=    2 X=  -2.013999373557D+00 Y=   3.371039599000D-01 Z=  -3.021831223377D+00
 I=    3 X=  -2.937606737558D+00 Y=   1.975960702800D+00 Z=   6.735879527754D-01
 I=    4 X=  -3.116258390873D+00 Y=  -2.130486202926D+00 Z=   1.262928923212D-01
 I=    5 X=   1.609835129587D+00 Y=  -2.829128524485D-01 Z=   5.026193102792D-01
 I=    6 X=   1.863163770196D+00 Y=  -3.178434988423D-01 Z=   3.239546669147D+00
 I=    7 X=   2.961836425858D+00 Y=  -2.064083310741D+00 Z=  -1.035420788852D+00
 I=    8 X=   2.642620809774D+00 Y=   2.519001631882D+00 Z=  -3.038985535545D-01
 I=    9 X=   3.295081311983D+00 Y=   3.432171378388D+00 Z=   1.329278425426D+00
 MW Cartesian velocity:
 I=    1 X=   4.570254410474D+13 Y=   6.185778024638D+13 Z=   6.473457306245D+13
 I=    2 X=   1.869662112189D+13 Y=  -4.332850002615D+13 Z=  -7.209164384570D+13
 I=    3 X=  -8.897856181260D+13 Y=   1.983206350295D+13 Z=  -2.999397493549D+12
 I=    4 X=  -8.591297425543D+13 Y=  -6.243857108925D+13 Z=  -1.582784468804D+13
 I=    5 X=   5.099279394209D+12 Y=  -1.095731237767D+14 Z=   3.392832109015D+12
 I=    6 X=   9.474773536186D+13 Y=  -2.549932240365D+13 Z=   3.584808013373D+13
 I=    7 X=  -9.357541046908D+13 Y=   1.266435470732D+14 Z=   3.724531690144D+13
 I=    8 X=   1.031388050727D+14 Y=   5.611458138412D+13 Z=  -7.783079828605D+13
 I=    9 X=   7.618200399890D+13 Y=   1.503310065556D+14 Z=   1.711363883274D+14
 TRJ-TRJ-TRJ-TRJ-TRJ-TRJ-TRJ-TRJ-TRJ-TRJ-TRJ-TRJ-TRJ-TRJ-TRJ-TRJ-TRJ-TRJ
                          Input orientation:                          
 ---------------------------------------------------------------------
 Center     Atomic      Atomic             Coordinates (Angstroms)
 Number     Number       Type             X           Y           Z
 ---------------------------------------------------------------------
      1          6           0       -0.923530   -0.002367   -0.245528
      2          9           0       -1.065534    0.177862   -1.599953
      3          9           0       -1.555591    1.045872    0.356411
      4          9           0       -1.650091   -1.128157    0.066639
      5         16           0        0.851939   -0.150729    0.266009
      6          8           0        0.987194   -0.168535    1.714769
      7          8           0        1.566099   -1.090598   -0.547432
      8          8           0        1.399780    1.333744   -0.161838
      9          1           0        1.747636    1.824061    0.712309
 ---------------------------------------------------------------------
                    Distance matrix (angstroms):
                    1          2          3          4          5
     1  C    0.000000
     2  F    1.373722   0.000000
     3  F    1.364053   2.195668   0.000000
     4  F    1.375770   2.196570   2.195291   0.000000
     5  S    1.853637   2.695642   2.690024   2.693560   0.000000
     6  O    2.742488   3.914212   3.128206   3.254608   1.455169
     7  O    2.733797   3.105203   3.889266   3.274504   1.433549
     8  O    2.681411   3.079287   3.014245   3.926177   1.639159
     9  H    3.374673   3.996305   3.412265   4.547200   2.213878
                    6          7          8          9
     6  O    0.000000
     7  O    2.510554   0.000000
     8  O    2.439000   2.460442   0.000000
     9  H    2.356616   3.180431   1.060918   0.000000
 Symmetry turned off by external request.
 Stoichiometry    CHF3O3S
 Framework group  C1[X(CHF3O3S)]
 Deg. of freedom    21
 Full point group                 C1      NOp   1
 Rotational constants (GHZ):           2.6169772           1.4529294           1.4363896
 Standard basis: 6-31G(d) (6D, 7F)
   126 basis functions,   252 primitive gaussians,   126 cartesian basis functions
    37 alpha electrons       37 beta electrons
       nuclear repulsion energy       555.2187219582 Hartrees.
 NAtoms=    9 NActive=    9 NUniq=    9 SFac= 1.00D+00 NAtFMM=   60 NAOKFM=F Big=F
 Integral buffers will be    131072 words long.
 Raffenetti 2 integral format.
 Two-electron integral symmetry is turned off.
 One-electron integrals computed using PRISM.
 NBasis=   126 RedAO= T EigKep=  2.59D-03  NBF=   126
 NBsUse=   126 1.00D-06 EigRej= -1.00D+00 NBFU=   126
 Keep R1 ints in memory in canonical form, NReq=39624265.
 Requested convergence on RMS density matrix=1.00D-08 within 128 cycles.
 Requested convergence on MAX density matrix=1.00D-06.
 Requested convergence on             energy=1.00D-06.
 No special actions if energy rises.
 SCF Done:  E(RB3LYP) =  -961.979547490     A.U. after    1 cycles
            NFock=  1  Conv=0.20D+01     -V/T= 2.0063
 Calling FoFJK, ICntrl=      2127 FMM=F ISym2X=0 I1Cent= 0 IOpClX= 0 NMat=1 NMatS=1 NMatT=0.
 -------------------------------------------------------------------
 Center     Atomic                   Forces (Hartrees/Bohr)
 Number     Number              X              Y              Z
 -------------------------------------------------------------------
      1        6          -0.037174886   -0.006214102   -0.026857015
      2        9           0.002569601   -0.008202758    0.037511780
      3        9           0.010120248   -0.019838790   -0.005408519
      4        9           0.019774192    0.031061941   -0.007548201
      5       16           0.042305433    0.071892725    0.024055964
      6        8          -0.023032724   -0.011812166    0.003554100
      7        8           0.004457514   -0.039130543   -0.023787261
      8        8           0.005801591    0.018163120    0.051554653
      9        1          -0.024820970   -0.035919427   -0.053075502
 -------------------------------------------------------------------
 Cartesian Forces:  Max     0.071892725 RMS     0.029591228
 TRJ-TRJ-TRJ-TRJ-TRJ-TRJ-TRJ-TRJ-TRJ-TRJ-TRJ-TRJ-TRJ-TRJ-TRJ-TRJ-TRJ-TRJ

 ADMP step      6
 Frobenius norm of [F,P] =     6.693077D-02
 Current gradient on entry to l121
 I=    1 X=   3.717488551833D-02 Y=   6.214102426151D-03 Z=   2.685701515998D-02
 I=    2 X=  -2.569600698799D-03 Y=   8.202758108298D-03 Z=  -3.751178043125D-02
 I=    3 X=  -1.012024811709D-02 Y=   1.983879024398D-02 Z=   5.408518793235D-03
 I=    4 X=  -1.977419153845D-02 Y=  -3.106194062417D-02 Z=   7.548200642131D-03
 I=    5 X=  -4.230543320775D-02 Y=  -7.189272517562D-02 Z=  -2.405596351612D-02
 I=    6 X=   2.303272372405D-02 Y=   1.181216569053D-02 Z=  -3.554100142885D-03
 I=    7 X=  -4.457514415012D-03 Y=   3.913054314222D-02 Z=   2.378726058950D-02
 I=    8 X=  -5.801590886220D-03 Y=  -1.816312038833D-02 Z=  -5.155465302371D-02
 I=    9 X=   2.482096962112D-02 Y=   3.591942657683D-02 Z=   5.307550192889D-02

 Summary information for step      6
 Time (fs)     0.600000
 EKinC      =      0.0849919; EKinPA =      0.0028895; EKinPB =      0.0028895
 EKin       =      0.0907709; EPot   =   -961.9795475; ETot   =   -961.8887766
 ETot-EKinP =   -961.8945556
 Adiabaticity Index =    3.0987D-03
 Integrand for the Velocity-Velocity Auto-Correlation  Function =   1.725175767863D-01
 Angular momentum
   JX = -0.1633277389D-13  JY = -0.3084110954D-13  JZ = -0.6817080766D-13
 Jtot =  0.7658454516D-13 H-BAR;  J (Quantum Number) =  0.0000000000D+00
 Total energy  -9.618887766D+02  Delta-E  -3.586202D-06 A.U.
 Total angular momentum   7.658455D-14  Delta-A   9.344592D-15 h-bar
 Tr(PA)-NA = -7.105D-15
 Tr(PA**2-PA) = -1.469D-10
 Tr[(PA**2-PA)**2] =  6.029D-13
 Cartesian coordinates:
 I=    1 X=  -1.745217851769D+00 Y=  -4.473764867017D-03 Z=  -4.639811111850D-01
 I=    2 X=  -2.013567263231D+00 Y=   3.361103127078D-01 Z=  -3.023472386615D+00
 I=    3 X=  -2.939641297879D+00 Y=   1.976412145888D+00 Z=   6.735192145504D-01
 I=    4 X=  -3.118219648921D+00 Y=  -2.131907880902D+00 Z=   1.259303401527D-01
 I=    5 X=   1.609931390577D+00 Y=  -2.848372795996D-01 Z=   5.026836954160D-01
 I=    6 X=   1.865525669925D+00 Y=  -3.184854728010D-01 Z=   3.240443102784D+00
 I=    7 X=   2.959498993945D+00 Y=  -2.060930909379D+00 Z=  -1.034496923793D+00
 I=    8 X=   2.645201119129D+00 Y=   2.520410279970D+00 Z=  -3.058288124459D-01
 I=    9 X=   3.302553799955D+00 Y=   3.446976474858D+00 Z=   1.346068609041D+00
 MW Cartesian velocity:
 I=    1 X=   4.404589781080D+13 Y=   6.120855537208D+13 Z=   6.359113964931D+13
 I=    2 X=   1.885334174461D+13 Y=  -4.339880371293D+13 Z=  -7.112377945262D+13
 I=    3 X=  -8.857007872172D+13 Y=   1.946433142117D+13 Z=  -3.045624870944D+12
 I=    4 X=  -8.527332862202D+13 Y=  -6.163232964491D+13 Z=  -1.587379730624D+13
 I=    5 X=   5.794462719848D+12 Y=  -1.082185639645D+14 Z=   3.837289741304D+12
 I=    6 X=   9.420035933289D+13 Y=  -2.581287345914D+13 Z=   3.588867006447D+13
 I=    7 X=  -9.343405053678D+13 Y=   1.256166563205D+14 Z=   3.666234273912D+13
 I=    8 X=   1.032630246772D+14 Y=   5.654940231928D+13 Z=  -7.660142802339D+13
 I=    9 X=   7.387438278592D+13 Y=   1.469509870597D+14 Z=   1.660397582177D+14
 TRJ-TRJ-TRJ-TRJ-TRJ-TRJ-TRJ-TRJ-TRJ-TRJ-TRJ-TRJ-TRJ-TRJ-TRJ-TRJ-TRJ-TRJ
                          Input orientation:                          
 ---------------------------------------------------------------------
 Center     Atomic      Atomic             Coordinates (Angstroms)
 Number     Number       Type             X           Y           Z
 ---------------------------------------------------------------------
      1          6           0       -0.922864   -0.001434   -0.244562
      2          9           0       -1.065305    0.177334   -1.600811
      3          9           0       -1.556665    1.046106    0.356373
      4          9           0       -1.651123   -1.128901    0.066446
      5         16           0        0.851997   -0.151737    0.266047
      6          8           0        0.988437   -0.168879    1.715244
      7          8           0        1.564864   -1.088942   -0.546951
      8          8           0        1.401147    1.334495   -0.162843
      9          1           0        1.751470    1.831719    0.720928
 ---------------------------------------------------------------------
                    Distance matrix (angstroms):
                    1          2          3          4          5
     1  C    0.000000
     2  F    1.375376   0.000000
     3  F    1.363879   2.196991   0.000000
     4  F    1.377777   2.197540   2.196278   0.000000
     5  S    1.852955   2.696199   2.691586   2.694495   0.000000
     6  O    2.742617   3.915857   3.130537   3.256909   1.455707
     7  O    2.731832   3.103524   3.888234   3.274206   1.430908
     8  O    2.681868   3.080610   3.016854   3.929027   1.641462
     9  H    3.382999   4.007703   3.419627   4.557550   2.224874
                    6          7          8          9
     6  O    0.000000
     7  O    2.509245   0.000000
     8  O    2.440835   2.459143   0.000000
     9  H    2.360778   3.189451   1.072852   0.000000
 Symmetry turned off by external request.
 Stoichiometry    CHF3O3S
 Framework group  C1[X(CHF3O3S)]
 Deg. of freedom    21
 Full point group                 C1      NOp   1
 Rotational constants (GHZ):           2.6154833           1.4517188           1.4356340
 Standard basis: 6-31G(d) (6D, 7F)
   126 basis functions,   252 primitive gaussians,   126 cartesian basis functions
    37 alpha electrons       37 beta electrons
       nuclear repulsion energy       555.0197788869 Hartrees.
 NAtoms=    9 NActive=    9 NUniq=    9 SFac= 1.00D+00 NAtFMM=   60 NAOKFM=F Big=F
 Integral buffers will be    131072 words long.
 Raffenetti 2 integral format.
 Two-electron integral symmetry is turned off.
 One-electron integrals computed using PRISM.
 NBasis=   126 RedAO= T EigKep=  2.59D-03  NBF=   126
 NBsUse=   126 1.00D-06 EigRej= -1.00D+00 NBFU=   126
 Keep R1 ints in memory in canonical form, NReq=39624265.
 Requested convergence on RMS density matrix=1.00D-08 within 128 cycles.
 Requested convergence on MAX density matrix=1.00D-06.
 Requested convergence on             energy=1.00D-06.
 No special actions if energy rises.
 SCF Done:  E(RB3LYP) =  -961.977540587     A.U. after    1 cycles
            NFock=  1  Conv=0.20D+01     -V/T= 2.0063
 Calling FoFJK, ICntrl=      2127 FMM=F ISym2X=0 I1Cent= 0 IOpClX= 0 NMat=1 NMatS=1 NMatT=0.
 -------------------------------------------------------------------
 Center     Atomic                   Forces (Hartrees/Bohr)
 Number     Number              X              Y              Z
 -------------------------------------------------------------------
      1        6          -0.012499297    0.022840406   -0.003108311
      2        9          -0.000437693   -0.015224800    0.024273600
      3        9           0.000908444   -0.022430628   -0.008357899
      4        9           0.008778510    0.017484683   -0.012083871
      5       16           0.041416538    0.050803258    0.018347950
      6        8          -0.020572199   -0.007984887    0.006417516
      7        8           0.000275612   -0.029045637   -0.022124445
      8        8           0.006665898    0.018337739    0.048153617
      9        1          -0.024535813   -0.034780133   -0.051518156
 -------------------------------------------------------------------
 Cartesian Forces:  Max     0.051518156 RMS     0.024548490
 TRJ-TRJ-TRJ-TRJ-TRJ-TRJ-TRJ-TRJ-TRJ-TRJ-TRJ-TRJ-TRJ-TRJ-TRJ-TRJ-TRJ-TRJ

 ADMP step      7
 Frobenius norm of [F,P] =     7.775652D-02
 Current gradient on entry to l121
 I=    1 X=   1.249929679253D-02 Y=  -2.284040590858D-02 Z=   3.108311438802D-03
 I=    2 X=   4.376925821763D-04 Y=   1.522479998010D-02 Z=  -2.427360028197D-02
 I=    3 X=  -9.084435465958D-04 Y=   2.243062774827D-02 Z=   8.357899175275D-03
 I=    4 X=  -8.778509574565D-03 Y=  -1.748468255268D-02 Z=   1.208387077317D-02
 I=    5 X=  -4.141653794720D-02 Y=  -5.080325811104D-02 Z=  -1.834794950844D-02
 I=    6 X=   2.057219852971D-02 Y=   7.984887426587D-03 Z=  -6.417515538693D-03
 I=    7 X=  -2.756119597898D-04 Y=   2.904563686495D-02 Z=   2.212444471806D-02
 I=    8 X=  -6.665898170889D-03 Y=  -1.833773850659D-02 Z=  -4.815361727051D-02
 I=    9 X=   2.453581329457D-02 Y=   3.478013305892D-02 Z=   5.151815649447D-02

 Summary information for step      7
 Time (fs)     0.700000
 EKinC      =      0.0829415; EKinPA =      0.0029146; EKinPB =      0.0029146
 EKin       =      0.0887707; EPot   =   -961.9775406; ETot   =   -961.8887699
 ETot-EKinP =   -961.8945991
 Adiabaticity Index =    1.3167D-03
 Integrand for the Velocity-Velocity Auto-Correlation  Function =   1.703274443246D-01
 Angular momentum
   JX = -0.2078204867D-13  JY = -0.3012256098D-13  JZ = -0.4855710971D-13
 Jtot =  0.6080341381D-13 H-BAR;  J (Quantum Number) =  0.0000000000D+00
 Total energy  -9.618887699D+02  Delta-E   6.723413D-06 A.U.
 Total angular momentum   6.080341D-14  Delta-A  -1.578113D-14 h-bar
 Tr(PA)-NA =  2.842D-14
 Tr(PA**2-PA) =  1.315D-10
 Tr[(PA**2-PA)**2] =  5.642D-13
 Cartesian coordinates:
 I=    1 X=  -1.743960939857D+00 Y=  -2.709247431376D-03 Z=  -4.621556767025D-01
 I=    2 X=  -2.013134286559D+00 Y=   3.351126025413D-01 Z=  -3.025094743324D+00
 I=    3 X=  -2.941670782254D+00 Y=   1.976853825105D+00 Z=   6.734482040501D-01
 I=    4 X=  -3.120171163944D+00 Y=  -2.133314206988D+00 Z=   1.255645219429D-01
 I=    5 X=   1.610040084238D+00 Y=  -2.867406271917D-01 Z=   5.027550382007D-01
 I=    6 X=   1.867874536846D+00 Y=  -3.191343476700D-01 Z=   3.241341387885D+00
 I=    7 X=   2.957163980739D+00 Y=  -2.057801479553D+00 Z=  -1.033587380331D+00
 I=    8 X=   2.647784781719D+00 Y=   2.521829551439D+00 Z=  -3.077292337662D-01
 I=    9 X=   3.309798718621D+00 Y=   3.461447256587D+00 Z=   1.362357207917D+00
 MW Cartesian velocity:
 I=    1 X=   4.336878192884D+13 Y=   6.143598318376D+13 Z=   6.320102969785D+13
 I=    2 X=   1.885704300389D+13 Y=  -4.364766009653D+13 Z=  -7.044525108140D+13
 I=    3 X=  -8.844673787650D+13 Y=   1.901222667667D+13 Z=  -3.173402608717D+12
 I=    4 X=  -8.496832004382D+13 Y=  -6.110732856185D+13 Z=  -1.606510741250D+13
 I=    5 X=   6.489949150264D+12 Y=  -1.072022916137D+14 Z=   4.182424525101D+12
 I=    6 X=   9.370935479390D+13 Y=  -2.604765108112D+13 Z=   3.599474774019D+13
 I=    7 X=  -9.338848636000D+13 Y=   1.248155339246D+14 Z=   3.610540922512D+13
 I=    8 X=   1.034082927857D+14 Y=   5.697525773097D+13 Z=  -7.544751885186D+13
 I=    9 X=   7.161357312299D+13 Y=   1.436364520285D+14 Z=   1.610805135642D+14
 TRJ-TRJ-TRJ-TRJ-TRJ-TRJ-TRJ-TRJ-TRJ-TRJ-TRJ-TRJ-TRJ-TRJ-TRJ-TRJ-TRJ-TRJ
                          Input orientation:                          
 ---------------------------------------------------------------------
 Center     Atomic      Atomic             Coordinates (Angstroms)
 Number     Number       Type             X           Y           Z
 ---------------------------------------------------------------------
      1          6           0       -0.922205   -0.000490   -0.243597
      2          9           0       -1.065076    0.176802   -1.601663
      3          9           0       -1.557739    1.046334    0.356334
      4          9           0       -1.652154   -1.129641    0.066249
      5         16           0        0.852060   -0.152736    0.266087
      6          8           0        0.989674   -0.169225    1.715721
      7          8           0        1.563628   -1.087295   -0.546477
      8          8           0        1.402517    1.335251   -0.163834
      9          1           0        1.755186    1.839204    0.729291
 ---------------------------------------------------------------------
                    Distance matrix (angstroms):
                    1          2          3          4          5
     1  C    0.000000
     2  F    1.377021   0.000000
     3  F    1.363694   2.198307   0.000000
     4  F    1.379787   2.198496   2.197255   0.000000
     5  S    1.852289   2.696757   2.693148   2.695435   0.000000
     6  O    2.742750   3.917495   3.132862   3.259204   1.456245
     7  O    2.729880   3.101845   3.887206   3.273909   1.428282
     8  O    2.682330   3.081943   3.019464   3.931875   1.643758
     9  H    3.391077   4.018806   3.426837   4.567672   2.235625
                    6          7          8          9
     6  O    0.000000
     7  O    2.507951   0.000000
     8  O    2.442666   2.457865   0.000000
     9  H    2.364919   3.198229   1.084443   0.000000
 Symmetry turned off by external request.
 Stoichiometry    CHF3O3S
 Framework group  C1[X(CHF3O3S)]
 Deg. of freedom    21
 Full point group                 C1      NOp   1
 Rotational constants (GHZ):           2.6139986           1.4505133           1.4348781
 Standard basis: 6-31G(d) (6D, 7F)
   126 basis functions,   252 primitive gaussians,   126 cartesian basis functions
    37 alpha electrons       37 beta electrons
       nuclear repulsion energy       554.8246376432 Hartrees.
 NAtoms=    9 NActive=    9 NUniq=    9 SFac= 1.00D+00 NAtFMM=   60 NAOKFM=F Big=F
 Integral buffers will be    131072 words long.
 Raffenetti 2 integral format.
 Two-electron integral symmetry is turned off.
 One-electron integrals computed using PRISM.
 NBasis=   126 RedAO= T EigKep=  2.59D-03  NBF=   126
 NBsUse=   126 1.00D-06 EigRej= -1.00D+00 NBFU=   126
 Keep R1 ints in memory in canonical form, NReq=39624265.
 Requested convergence on RMS density matrix=1.00D-08 within 128 cycles.
 Requested convergence on MAX density matrix=1.00D-06.
 Requested convergence on             energy=1.00D-06.
 No special actions if energy rises.
 SCF Done:  E(RB3LYP) =  -961.975483857     A.U. after    1 cycles
            NFock=  1  Conv=0.20D+01     -V/T= 2.0064
 Calling FoFJK, ICntrl=      2127 FMM=F ISym2X=0 I1Cent= 0 IOpClX= 0 NMat=1 NMatS=1 NMatT=0.
 -------------------------------------------------------------------
 Center     Atomic                   Forces (Hartrees/Bohr)
 Number     Number              X              Y              Z
 -------------------------------------------------------------------
      1        6          -0.015051692    0.037781691    0.007274307
      2        9           0.004027193   -0.017141627    0.015630699
      3        9           0.001626789   -0.021795996   -0.008708163
      4        9           0.008738799    0.007521599   -0.011428017
      5       16           0.038887080    0.033825564    0.015112326
      6        8          -0.018096394   -0.004791298    0.008209825
      7        8          -0.003185873   -0.021178234   -0.021113698
      8        8           0.007790650    0.020074691    0.046463764
      9        1          -0.024736552   -0.034296390   -0.051441043
 -------------------------------------------------------------------
 Cartesian Forces:  Max     0.051441043 RMS     0.023047712
 TRJ-TRJ-TRJ-TRJ-TRJ-TRJ-TRJ-TRJ-TRJ-TRJ-TRJ-TRJ-TRJ-TRJ-TRJ-TRJ-TRJ-TRJ

 ADMP step      8
 Frobenius norm of [F,P] =     8.085678D-02
 Current gradient on entry to l121
 I=    1 X=   1.505169202833D-02 Y=  -3.778169054036D-02 Z=  -7.274306832236D-03
 I=    2 X=  -4.027192766622D-03 Y=   1.714162696457D-02 Z=  -1.563069902134D-02
 I=    3 X=  -1.626788794983D-03 Y=   2.179599623017D-02 Z=   8.708162690452D-03
 I=    4 X=  -8.738799189214D-03 Y=  -7.521599495426D-03 Z=   1.142801687755D-02
 I=    5 X=  -3.888707951745D-02 Y=  -3.382556424260D-02 Z=  -1.511232640897D-02
 I=    6 X=   1.809639411038D-02 Y=   4.791298092354D-03 Z=  -8.209824618596D-03
 I=    7 X=   3.185872724693D-03 Y=   2.117823449916D-02 Z=   2.111369844138D-02
 I=    8 X=  -7.790650181766D-03 Y=  -2.007469129193D-02 Z=  -4.646376404127D-02
 I=    9 X=   2.473655158665D-02 Y=   3.429638978410D-02 Z=   5.144104291293D-02

 Summary information for step      8
 Time (fs)     0.800000
 EKinC      =      0.0811959; EKinPA =      0.0027588; EKinPB =      0.0027588
 EKin       =      0.0867135; EPot   =   -961.9754839; ETot   =   -961.8887704
 ETot-EKinP =   -961.8942880
 Adiabaticity Index =    2.0065D-04
 Integrand for the Velocity-Velocity Auto-Correlation  Function =   1.684080243156D-01
 Angular momentum
   JX = -0.7143090851D-14  JY = -0.9845577704D-15  JZ = -0.8891264503D-13
 Jtot =  0.8920454892D-13 H-BAR;  J (Quantum Number) =  0.0000000000D+00
 Total energy  -9.618887704D+02  Delta-E  -5.001752D-07 A.U.
 Total angular momentum   8.920455D-14  Delta-A   2.840114D-14 h-bar
 Tr(PA)-NA = -1.421D-14
 Tr(PA**2-PA) =  1.545D-10
 Tr[(PA**2-PA)**2] =  6.334D-13
 Cartesian coordinates:
 I=    1 X=  -1.742713953977D+00 Y=  -9.267567241093D-04 Z=  -4.603321980340D-01
 I=    2 X=  -2.012702006400D+00 Y=   3.341075365553D-01 Z=  -3.026704772237D+00
 I=    3 X=  -2.943699683071D+00 Y=   1.977284523333D+00 Z=   6.733736027341D-01
 I=    4 X=  -3.122118426650D+00 Y=  -2.134711795250D+00 Z=   1.251931914959D-01
 I=    5 X=   1.610160945124D+00 Y=  -2.886291079997D-01 Z=   5.028316310231D-01
 I=    6 X=   1.870211882445D+00 Y=  -3.197880623757D-01 Z=   3.242243126248D+00
[...]
 I=    7 X=  -5.927092893709D-02 Y=   1.120376234211D-01 Z=   9.860995368165D-02
 I=    8 X=  -2.740118811335D-04 Y=  -1.846890735860D-02 Z=  -6.004766152538D-02
 I=    9 X=   2.690126252439D-02 Y=   4.683964965196D-02 Z=   6.789413713446D-02

 Summary information for step     50
 Time (fs)     5.000000
 EKinC      =      0.0436117; EKinPA =      0.0012719; EKinPB =      0.0012719
 EKin       =      0.0461554; EPot   =   -961.9349403; ETot   =   -961.8887848
 ETot-EKinP =   -961.8913286
 Adiabaticity Index =    8.1805D-04
 Integrand for the Velocity-Velocity Auto-Correlation  Function =   2.279790222670D-02
 Angular momentum
   JX =  0.2225936193D-13  JY = -0.7129873856D-13  JZ = -0.1131327513D-12
 Jtot =  0.1355655146D-12 H-BAR;  J (Quantum Number) =  0.0000000000D+00
 Total energy  -9.618887848D+02  Delta-E  -1.958713D-05 A.U.
 Total angular momentum   1.355655D-13  Delta-A   8.202498D-16 h-bar
 Tr(PA)-NA =  1.421D-14
 Tr(PA**2-PA) =  1.252D-10
 Tr[(PA**2-PA)**2] =  5.135D-13
 Cartesian coordinates:
 I=    1 X=  -1.741457474029D+00 Y=   6.969781897626D-02 Z=  -4.049704552235D-01
 I=    2 X=  -1.986861698220D+00 Y=   2.906561839203D-01 Z=  -3.076521641461D+00
 I=    3 X=  -3.017646566443D+00 Y=   1.986388598875D+00 Z=   6.669365898573D-01
 I=    4 X=  -3.188801526822D+00 Y=  -2.180337084717D+00 Z=   1.085588304409D-01
 I=    5 X=   1.619902304989D+00 Y=  -3.475139491217D-01 Z=   5.223966174072D-01
 I=    6 X=   1.958299758661D+00 Y=  -3.513864073792D-01 Z=   3.278589122122D+00
 I=    7 X=   2.866176602592D+00 Y=  -1.952722713070D+00 Z=  -1.021771838027D+00
 I=    8 X=   2.765164823001D+00 Y=   2.600504359132D+00 Z=  -3.551310347233D-01
 I=    9 X=   3.343831757454D+00 Y=   3.667559925082D+00 Z=   1.444752865927D+00
 MW Cartesian velocity:
 I=    1 X=  -4.530724660215D+13 Y=   4.566033360918D+13 Z=   2.143193043708D+13
 I=    2 X=   3.512486116648D+13 Y=  -4.484173021573D+13 Z=  -2.906414224180D+13
 I=    3 X=  -6.423316316627D+13 Y=   8.663374896459D+11 Z=  -9.761624981797D+12
 I=    4 X=  -5.128368516719D+13 Y=  -2.989792304023D+13 Z=  -1.779808413102D+13
 I=    5 X=   1.295347323954D+13 Y=  -3.591204914069D+13 Z=   5.972004856862D+13
 I=    6 X=   7.361806157286D+13 Y=  -3.449686346110D+13 Z=   2.974445152280D+13
 I=    7 X=  -6.397464793603D+13 Y=   5.365446823246D+13 Z=  -2.921330181491D+13
 I=    8 X=   1.132091800161D+14 Y=   8.663384959282D+13 Z=  -8.220733644537D+12
 I=    9 X=  -5.699889800177D+13 Y=  -5.599858479759D+13 Z=  -1.338391929552D+14


 Final analysis for traj   1
 Traj calculation does not meet the product criterion.


 Analysis of fragment    1

 Instantaneous rotational analysis:
 Q(CM): X= -0.525589221484D-16 Y=  0.131792539262D-16 Z=  0.222376613248D-16
 V(CM): X= -0.207348403898D-02 Y= -0.402763367634D-02 Z=  0.304571939373D-02
 Angular momentum in principle axes
   JX = -0.2852928728D-13  JY = -0.1320676731D-12  JZ = -0.1105523506D-13
 Jtot =  0.1355655146D-12  H-BAR;  J (Quantum Number) =  0.0000000000D+00
 Angular momentum in original axes
   JX =  0.2225936193D-13  JY = -0.7129873856D-13  JZ = -0.1131327513D-12
 Jtot =  0.1355655146D-12  H-BAR;  J (Quantum Number) =  0.0000000000D+00

 Etrn =  0.2276592530D-32 Erot =  0.3939554273D-32 Evib(kin) =  0.4361165848D-01 au
 Epot = -0.9618887848D+03 Etot = -0.9618451732D+03 au

 Trajectory summary for trajectory      1
 Energy/Fock evaluations               51
 Gradient evaluations                  51

 Trajectory summary
   Time (fs)   Kinetic (au)   Potent (au)   Delta E (au)     Delta A (h-bar)
     0.000000     0.1000000  -961.9888344     0.0000000     0.0000000000000000
     0.100000     0.0988920  -961.9876839     0.0000425    -0.0000000000000025
     0.200000     0.0970126  -961.9857386     0.0001084     0.0000000000000148
     0.300000     0.0952437  -961.9839528     0.0001253     0.0000000000000125
     0.400000     0.0938575  -961.9825995     0.0000923     0.0000000000000220
     0.500000     0.0924818  -961.9812548     0.0000614     0.0000000000000256
     0.600000     0.0907709  -961.9795475     0.0000578     0.0000000000000349
     0.700000     0.0887707  -961.9775406     0.0000645     0.0000000000000191
     0.800000     0.0867135  -961.9754839     0.0000640     0.0000000000000475
     0.900000     0.0847414  -961.9735202     0.0000555     0.0000000000000378
     1.000000     0.0828385  -961.9716301     0.0000428     0.0000000000000115
     1.100000     0.0808732  -961.9696746     0.0000329     0.0000000000000296
     1.200000     0.0787103  -961.9675080     0.0000366     0.0000000000000392
     1.300000     0.0763590  -961.9651404     0.0000530     0.0000000000000335
     1.400000     0.0739672  -961.9627347     0.0000669     0.0000000000000257
     1.500000     0.0716419  -961.9604053     0.0000710     0.0000000000000072
     1.600000     0.0693684  -961.9581285     0.0000744     0.0000000000000126
     1.700000     0.0671184  -961.9558720     0.0000808     0.0000000000000087
     1.800000     0.0649090  -961.9536600     0.0000834     0.0000000000000200
     1.900000     0.0627376  -961.9514890     0.0000830     0.0000000000000182
     2.000000     0.0605952  -961.9493407     0.0000889     0.0000000000000170
     2.100000     0.0585607  -961.9472973     0.0000977     0.0000000000000316
     2.200000     0.0567405  -961.9454786     0.0000964     0.0000000000000315
     2.300000     0.0551041  -961.9438510     0.0000874     0.0000000000000306
     2.400000     0.0535142  -961.9422617     0.0000868     0.0000000000000314
     2.500000     0.0519232  -961.9406615     0.0000961     0.0000000000000360
     2.600000     0.0504031  -961.9391362     0.0001014     0.0000000000000327
     2.700000     0.0489901  -961.9377255     0.0000989     0.0000000000000602
     2.800000     0.0476394  -961.9363756     0.0000981     0.0000000000000288
     2.900000     0.0463337  -961.9350668     0.0001013     0.0000000000000474
     3.000000     0.0451140  -961.9338457     0.0001027     0.0000000000000628
     3.100000     0.0440085  -961.9327403     0.0001026     0.0000000000000714
     3.200000     0.0430280  -961.9317570     0.0001053     0.0000000000000568
     3.300000     0.0422031  -961.9309306     0.0001069     0.0000000000000633
     3.400000     0.0415434  -961.9302747     0.0001031     0.0000000000000465
     3.500000     0.0409994  -961.9297337     0.0001001     0.0000000000000440
     3.600000     0.0405368  -961.9292684     0.0001028     0.0000000000000673
     3.700000     0.0401948  -961.9289238     0.0001054     0.0000000000000816
     3.800000     0.0400088  -961.9287400     0.0001032     0.0000000000001034
     3.900000     0.0399479  -961.9286800     0.0001022     0.0000000000000805
     4.000000     0.0399768  -961.9287049     0.0001063     0.0000000000000742
     4.100000     0.0401028  -961.9288273     0.0001099     0.0000000000000715
     4.200000     0.0403291  -961.9290520     0.0001115     0.0000000000000796
     4.300000     0.0406533  -961.9293723     0.0001153     0.0000000000000603
     4.400000     0.0411214  -961.9298396     0.0001162     0.0000000000000689
     4.500000     0.0417708  -961.9305012     0.0001040     0.0000000000000667
     4.600000     0.0425209  -961.9312699     0.0000854     0.0000000000000713
     4.700000     0.0432590  -961.9320159     0.0000775     0.0000000000000846
     4.800000     0.0440305  -961.9327868     0.0000781     0.0000000000000945
     4.900000     0.0449892  -961.9337545     0.0000691     0.0000000000000931
     5.000000     0.0461554  -961.9349403     0.0000495     0.0000000000000939
                             Max Error =      0.0001253     0.0000000000001034

 Density conservation (alpha)
    Time (fs)      Electron #     Av. Idempot     RMS Idempot
     0.000000  0.000000000000  0.000000000000  0.000000000000
     0.100000 -0.000000000000  0.000000000000  0.000000000000
     0.200000  0.000000000000 -0.000000000146  0.000000000001
     0.300000  0.000000000000  0.000000000108  0.000000000000
     0.400000 -0.000000000000  0.000000000125  0.000000000001
     0.500000  0.000000000000  0.000000000110  0.000000000000
     0.600000 -0.000000000000 -0.000000000147  0.000000000001
     0.700000  0.000000000000  0.000000000131  0.000000000001
     0.800000 -0.000000000000  0.000000000155  0.000000000001
     0.900000  0.000000000000 -0.000000000113  0.000000000000
     1.000000 -0.000000000000 -0.000000000127  0.000000000001
     1.100000  0.000000000000 -0.000000000115  0.000000000000
     1.200000  0.000000000000  0.000000000204  0.000000000001
     1.300000  0.000000000000  0.000000000147  0.000000000001
     1.400000  0.000000000000 -0.000000000209  0.000000000001
     1.500000  0.000000000000  0.000000000219  0.000000000001
     1.600000 -0.000000000000 -0.000000000116  0.000000000001
     1.700000  0.000000000000  0.000000000111  0.000000000000
     1.800000 -0.000000000000  0.000000000176  0.000000000001
     1.900000 -0.000000000000  0.000000000166  0.000000000001
     2.000000 -0.000000000000 -0.000000000117  0.000000000000
     2.100000  0.000000000000 -0.000000000154  0.000000000001
     2.200000  0.000000000000  0.000000000182  0.000000000001
     2.300000  0.000000000000 -0.000000000126  0.000000000001
     2.400000  0.000000000000 -0.000000000150  0.000000000001
     2.500000  0.000000000000 -0.000000000150  0.000000000001
     2.600000 -0.000000000000 -0.000000000133  0.000000000001
     2.700000  0.000000000000  0.000000000221  0.000000000001
     2.800000 -0.000000000000  0.000000000122  0.000000000001
     2.900000  0.000000000000  0.000000000072  0.000000000001
     3.000000  0.000000000000 -0.000000000141  0.000000000001
     3.100000  0.000000000000  0.000000000125  0.000000000001
     3.200000 -0.000000000000  0.000000000166  0.000000000001
     3.300000  0.000000000000  0.000000000169  0.000000000001
     3.400000  0.000000000000  0.000000000120  0.000000000000
     3.500000  0.000000000000 -0.000000000193  0.000000000001
     3.600000  0.000000000000  0.000000000244  0.000000000001
     3.700000  0.000000000000 -0.000000000224  0.000000000001
     3.800000 -0.000000000000  0.000000000125  0.000000000001
     3.900000 -0.000000000000 -0.000000000241  0.000000000001
     4.000000 -0.000000000000 -0.000000000152  0.000000000001
     4.100000 -0.000000000000  0.000000000116  0.000000000000
     4.200000  0.000000000000 -0.000000000166  0.000000000001
     4.300000 -0.000000000000  0.000000000167  0.000000000001
     4.400000 -0.000000000000  0.000000000177  0.000000000001
     4.500000 -0.000000000000 -0.000000000209  0.000000000001
     4.600000  0.000000000000  0.000000000192  0.000000000001
     4.700000  0.000000000000  0.000000000220  0.000000000001
     4.800000 -0.000000000000  0.000000000166  0.000000000001
     4.900000  0.000000000000 -0.000000000128  0.000000000001
     5.000000  0.000000000000  0.000000000125  0.000000000001
 Max Error =   0.000000000000  0.000000000244  0.000000000001
 TRJ-TRJ-TRJ-TRJ-TRJ-TRJ-TRJ-TRJ-TRJ-TRJ-TRJ-TRJ-TRJ-TRJ-TRJ-TRJ-TRJ-TRJ
                          Input orientation:                          
 ---------------------------------------------------------------------
 Center     Atomic      Atomic             Coordinates (Angstroms)
 Number     Number       Type             X           Y           Z
 ---------------------------------------------------------------------
      1          6           0       -0.921540    0.036882   -0.214301
      2          9           0       -1.051402    0.153809   -1.628025
      3          9           0       -1.596870    1.051152    0.352928
      4          9           0       -1.687441   -1.153785    0.057447
      5         16           0        0.857215   -0.183896    0.276440
      6          8           0        1.036288   -0.185946    1.734955
      7          8           0        1.516715   -1.033336   -0.540698
      8          8           0        1.463262    1.376128   -0.187927
      9          1           0        1.769480    1.940789    0.764530
 ---------------------------------------------------------------------
                    Distance matrix (angstroms):
                    1          2          3          4          5
     1  C    0.000000
     2  F    1.424483   0.000000
     3  F    1.344084   2.242082   0.000000
     4  F    1.441576   2.226019   2.226490   0.000000
     5  S    1.858370   2.717325   2.748405   2.732017   0.000000
     6  O    2.771703   3.972847   3.220858   3.342072   1.469468
     7  O    2.682721   3.030977   3.852022   3.261733   1.350631
     8  O    2.735243   3.145073   3.124507   4.048160   1.736838
     9  H    3.438685   4.107918   3.506163   4.693256   2.363207
                    6          7          8          9
     6  O    0.000000
     7  O    2.475374   0.000000
     8  O    2.513932   2.435738   0.000000
     9  H    2.449958   3.257750   1.148820   0.000000
 Symmetry turned off by external request.
 Stoichiometry    CHF3O3S
 Framework group  C1[X(CHF3O3S)]
 Deg. of freedom    21
 Full point group                 C1      NOp   1
 Rotational constants (GHZ):           2.5626171           1.4108111           1.4023459

 **********************************************************************

            Population analysis using the SCF Density.

 **********************************************************************

 Alpha  occ. eigenvalues --  -89.17446 -24.77507 -24.77335 -24.77280 -19.24143
 Alpha  occ. eigenvalues --  -19.19712 -19.19484 -10.50030  -8.19955  -6.16517
 Alpha  occ. eigenvalues --   -6.16294  -6.16268  -1.34154  -1.25661  -1.25510
 Alpha  occ. eigenvalues --   -1.18895  -1.07565  -1.05494  -0.79584  -0.69909
 Alpha  occ. eigenvalues --   -0.63493  -0.62132  -0.61773  -0.55923  -0.51583
 Alpha  occ. eigenvalues --   -0.49795  -0.49632  -0.49334  -0.47119  -0.46141
 Alpha  occ. eigenvalues --   -0.45968  -0.44018  -0.40598  -0.38154  -0.36324
 Alpha  occ. eigenvalues --   -0.36262  -0.34152
 Alpha virt. eigenvalues --   -0.01729  -0.01203   0.02265   0.05763   0.09257
 Alpha virt. eigenvalues --    0.14071   0.15864   0.18596   0.28639   0.31452
 Alpha virt. eigenvalues --    0.34274   0.38724   0.45807   0.48571   0.51071
 Alpha virt. eigenvalues --    0.64704   0.68135   0.73005   0.75650   0.79240
 Alpha virt. eigenvalues --    0.81356   0.87968   0.88057   0.92770   0.97368
 Alpha virt. eigenvalues --    0.98892   0.99759   1.01035   1.01690   1.07637
 Alpha virt. eigenvalues --    1.10045   1.10756   1.11424   1.16045   1.16202
 Alpha virt. eigenvalues --    1.18140   1.27306   1.28920   1.31941   1.34097
 Alpha virt. eigenvalues --    1.34104   1.36247   1.37409   1.51246   1.54682
 Alpha virt. eigenvalues --    1.58747   1.60372   1.66157   1.71152   1.73860
 Alpha virt. eigenvalues --    1.75176   1.76363   1.77319   1.78793   1.79947
 Alpha virt. eigenvalues --    1.81200   1.82128   1.82673   1.87111   1.91621
 Alpha virt. eigenvalues --    1.93200   1.95199   2.01235   2.01487   2.03583
 Alpha virt. eigenvalues --    2.08551   2.12122   2.16747   2.18964   2.19512
 Alpha virt. eigenvalues --    2.25816   2.34338   2.48685   2.61748   2.66045
 Alpha virt. eigenvalues --    2.66509   2.73450   2.79069   2.91536   3.00605
 Alpha virt. eigenvalues --    3.00722   3.58486   3.81768   3.86791   3.93200
 Alpha virt. eigenvalues --    4.29361   4.30439   4.43410   5.06069
          Condensed to atoms (all electrons):
               1          2          3          4          5          6
     1  C    4.718898   0.194974   0.232077   0.196907   0.099116  -0.029306
     2  F    0.194974   9.117418  -0.028267  -0.031405   0.011003   0.000183
     3  F    0.232077  -0.028267   9.026092  -0.030296   0.005389  -0.000194
     4  F    0.196907  -0.031405  -0.030296   9.132728   0.008030   0.000006
     5  S    0.099116   0.011003   0.005389   0.008030  13.603316   0.420281
     6  O   -0.029306   0.000183  -0.000194   0.000006   0.420281   8.175176
     7  O   -0.038232  -0.000423   0.000211   0.000029   0.521170  -0.042693
     8  O   -0.018602  -0.000415  -0.000396   0.000150   0.141113  -0.049322
     9  H    0.000794   0.000006  -0.000128  -0.000004   0.009902   0.003800
               7          8          9
     1  C   -0.038232  -0.018602   0.000794
     2  F   -0.000423  -0.000415   0.000006
     3  F    0.000211  -0.000396  -0.000128
     4  F    0.000029   0.000150  -0.000004
     5  S    0.521170   0.141113   0.009902
     6  O   -0.042693  -0.049322   0.003800
     7  O    7.962903  -0.048628   0.001259
     8  O   -0.048628   8.422155   0.200454
     9  H    0.001259   0.200454   0.384231
 Mulliken charges:
               1
     1  C    0.643374
     2  F   -0.263075
     3  F   -0.204487
     4  F   -0.276144
     5  S    1.180679
     6  O   -0.477930
     7  O   -0.355594
     8  O   -0.646508
     9  H    0.399686
 Sum of Mulliken charges =  -0.00000
 Mulliken charges with hydrogens summed into heavy atoms:
               1
     1  C    0.643374
     2  F   -0.263075
     3  F   -0.204487
     4  F   -0.276144
     5  S    1.180679
     6  O   -0.477930
     7  O   -0.355594
     8  O   -0.246822
 Electronic spatial extent (au):  <R**2>=            921.2404
 Charge=              0.0000 electrons
 Dipole moment (field-independent basis, Debye):
    X=             -0.3357    Y=              1.6911    Z=              0.6941  Tot=              1.8585
 Quadrupole moment (field-independent basis, Debye-Ang):
   XX=            -49.7368   YY=            -47.0127   ZZ=            -52.7645
   XY=              2.9799   XZ=              1.5946   YZ=              2.8719
 Traceless Quadrupole moment (field-independent basis, Debye-Ang):
   XX=              0.1012   YY=              2.8253   ZZ=             -2.9265
   XY=              2.9799   XZ=              1.5946   YZ=              2.8719
 Octapole moment (field-independent basis, Debye-Ang**2):
  XXX=            -20.8014  YYY=              6.7780  ZZZ=            -12.9366  XYY=             -1.9748
  XXY=              7.9077  XXZ=              2.6293  XZZ=             -9.9036  YZZ=              2.5522
  YYZ=              4.9843  XYZ=              5.0821
 Hexadecapole moment (field-independent basis, Debye-Ang**3):
 XXXX=           -482.0764 YYYY=           -199.8448 ZZZZ=           -244.8484 XXXY=              4.1010
 XXXZ=            -29.6762 YYYX=              9.8265 YYYZ=             11.1801 ZZZX=            -47.9917
 ZZZY=              3.1009 XXYY=           -108.0443 XXZZ=           -122.1222 YYZZ=            -71.1306
 XXYZ=              9.2287 YYXZ=             -0.9869 ZZXY=              2.8246
 N-N= 5.494196756523D+02 E-N=-3.377450534318D+03  KE= 9.559113411834D+02
 Unable to Open any file for archive entry.
 1\1\GINC-SPARTAN-BM197\ADMP\RB3LYP\6-31G(d)\C1H1F3O3S1\AKHALILOV\19-Ma
 r-2025\0\\# B3LYP/6-31G(d) ADMP int=ultrafine\\PFMS ADMP thermal decom
 position simulation targeting 600K\\0,1\C,-0.921539609,0.0368824975,-0
 .214301136\F,-1.0514019319,0.1538086287,-1.6280251416\F,-1.5968697936,
 1.0511515786,0.3529276445\F,-1.6874410981,-1.1537846974,0.0574468591\S
 ,0.8572153837,-0.1838964624,0.276440385\O,1.0362876044,-0.185945679,1.
 7349546474\O,1.5167153406,-1.033336359,-0.5406983714\O,1.4632622088,1.
 3761276438,-0.1879272505\H,1.7694795632,1.940789132,0.7645302921\\Vers
 ion=ES64L-G16RevC.01\HF=-961.9349403\RMSD=2.000e+00\RMSF=5.951e-02\Dip
 ole=-0.132055,0.6653248,0.2730659\Quadrupole=0.0752766,2.100525,-2.175
 8016,2.2154972,1.1855655,2.1352143\PG=C01 [X(C1H1F3O3S1)]\\@
 The archive entry for this job was punched.


 THERE'S SMALL CHOICE IN A BOWL OF ROTTEN APPLES.
                     SHAKESPEARE
 Job cpu time:       0 days  0 hours  8 minutes  7.8 seconds.
 Elapsed time:       0 days  0 hours  2 minutes 19.0 seconds.
 File lengths (MBytes):  RWF=     10 Int=      0 D2E=      0 Chk=      3 Scr=      1
 Normal termination of Gaussian 16 at Wed Mar 19 15:13:49 2025.
