 Entering Gaussian System, Link 0=g16
 Input=HF_ADMP_600K.gjf
 Output=HF_ADMP_600K.log
 Initial command:
 /apps/easybuild-2022/easybuild/software/Compiler/NVHPC/22.11-CUDA-11.7.0/Gaussian/g16c01-CUDA-11.7.0/g16/l1.exe "/tmp/Gau-63641.inp" -scrdir="/tmp/"
 Default is to use a total of   4 processors:
                                4 via shared-memory
                                1 via Linda
 Entering Link 1 = /apps/easybuild-2022/easybuild/software/Compiler/NVHPC/22.11-CUDA-11.7.0/Gaussian/g16c01-CUDA-11.7.0/g16/l1.exe PID=     63642.
  
 Copyright (c) 1988-2019, Gaussian, Inc.  All Rights Reserved.
  
 This is part of the Gaussian(R) 16 program.  It is based on
 the Gaussian(R) 09 system (copyright 2009, Gaussian, Inc.),
 the Gaussian(R) 03 system (copyright 2003, Gaussian, Inc.),
 the Gaussian(R) 98 system (copyright 1998, Gaussian, Inc.),
 the Gaussian(R) 94 system (copyright 1995, Gaussian, Inc.),
 the Gaussian 92(TM) system (copyright 1992, Gaussian, Inc.),
 the Gaussian 90(TM) system (copyright 1990, Gaussian, Inc.),
 the Gaussian 88(TM) system (copyright 1988, Gaussian, Inc.),
 the Gaussian 86(TM) system (copyright 1986, Carnegie Mellon
 University), and the Gaussian 82(TM) system (copyright 1983,
 Carnegie Mellon University). Gaussian is a federally registered
 trademark of Gaussian, Inc.
  
 This software contains proprietary and confidential information,
 including trade secrets, belonging to Gaussian, Inc.
  
 This software is provided under written license and may be
 used, copied, transmitted, or stored only in accord with that
 written license.
  
 The following legend is applicable only to US Government
 contracts under FAR:
  
                    RESTRICTED RIGHTS LEGEND
  
 Use, reproduction and disclosure by the US Government is
 subject to restrictions as set forth in subparagraphs (a)
 and (c) of the Commercial Computer Software - Restricted
 Rights clause in FAR 52.227-19.
  
 Gaussian, Inc.
 340 Quinnipiac St., Bldg. 40, Wallingford CT 06492
  
  
 ---------------------------------------------------------------
 Warning -- This program may not be used in any manner that
 competes with the business of Gaussian, Inc. or will provide
 assistance to any competitor of Gaussian, Inc.  The licensee
 of this program is prohibited from giving any competitor of
 Gaussian, Inc. access to this program.  By using this program,
 the user acknowledges that Gaussian, Inc. is engaged in the
 business of creating and licensing software in the field of
 computational chemistry and represents and warrants to the
 licensee that it is not a competitor of Gaussian, Inc. and that
 it will not use this program in any manner prohibited above.
 ---------------------------------------------------------------
  

 Cite this work as:
 Gaussian 16, Revision C.01,
 M. J. Frisch, G. W. Trucks, H. B. Schlegel, G. E. Scuseria, 
 M. A. Robb, J. R. Cheeseman, G. Scalmani, V. Barone, 
 G. A. Petersson, H. Nakatsuji, X. Li, M. Caricato, A. V. Marenich, 
 J. Bloino, B. G. Janesko, R. Gomperts, B. Mennucci, H. P. Hratchian, 
 J. V. Ortiz, A. F. Izmaylov, J. L. Sonnenberg, D. Williams-Young, 
 F. Ding, F. Lipparini, F. Egidi, J. Goings, B. Peng, A. Petrone, 
 T. Henderson, D. Ranasinghe, V. G. Zakrzewski, J. Gao, N. Rega, 
 G. Zheng, W. Liang, M. Hada, M. Ehara, K. Toyota, R. Fukuda, 
 J. Hasegawa, M. Ishida, T. Nakajima, Y. Honda, O. Kitao, H. Nakai, 
 T. Vreven, K. Throssell, J. A. Montgomery, Jr., J. E. Peralta, 
 F. Ogliaro, M. J. Bearpark, J. J. Heyd, E. N. Brothers, K. N. Kudin, 
 V. N. Staroverov, T. A. Keith, R. Kobayashi, J. Normand, 
 K. Raghavachari, A. P. Rendell, J. C. Burant, S. S. Iyengar, 
 J. Tomasi, M. Cossi, J. M. Millam, M. Klene, C. Adamo, R. Cammi, 
 J. W. Ochterski, R. L. Martin, K. Morokuma, O. Farkas, 
 J. B. Foresman, and D. J. Fox, Gaussian, Inc., Wallingford CT, 2019.
 
 ******************************************
 Gaussian 16:  ES64L-G16RevC.01  3-Jul-2019
                19-Mar-2025 
 ******************************************
 %chk=HF_ADMP TRJTRY RSTF=10_600K.chk
 %mem=8GB
 %nprocshared=8
 Will use up to    8 processors via shared memory.
 -----------------------------------
 # B3LYP/6-31G(d) ADMP int=ultrafine
 -----------------------------------
 1/26=4,29=20000,38=1,172=1/1,21;
 2/12=2,17=6,18=5,29=2,40=1/2;
 3/5=1,6=6,7=1,11=2,25=1,30=1,65=-1,71=1,74=-5,75=-5,89=400,90=600/1,2,3;
 4//1;
 5/5=2,14=200,38=5/2;
 6/7=2,8=2,9=2,10=2,28=1/1;
 7/7=1,127=-100/1,2,3,16;
 1/26=4/21(2);
 2/29=1/2;
 99/12=1/99;
 2/29=1/2;
 3/5=1,6=6,7=1,11=2,25=1,30=1,65=-1,71=1,74=-5,75=-5,89=400,90=600/1,2,3;
 5/5=2,14=100/2;
 7/7=1,127=-100/1,2,3,16;
 1/26=4/21(-4);
 2/29=1/2;
 6/7=2,8=2,9=2,10=2,19=2,28=1/1;
 99/9=1,12=1/99;
 -------------------------------------------------------
 HF ADMP thermal decomposition simulation targeting 600K
 -------------------------------------------------------
 Symbolic Z-matrix:
 Charge =  0 Multiplicity = 1
 F                     0.48777   0.        0. 
 H                    -0.48777   0.        0. 
 
 TRJ-TRJ-TRJ-TRJ-TRJ-TRJ-TRJ-TRJ-TRJ-TRJ-TRJ-TRJ-TRJ-TRJ-TRJ-TRJ-TRJ-TRJ
 ------------------------------------------------------------------------
 INPUT DATA FOR L121
 ------------------------------------------------------------------------

 General parameters:
 Maximum Steps                =      50
 Random Number Generator Seed =    398465
 Time Step                    =  0.10000 femtosec
 Ficticious electronic mass   =  0.10000 amu
 MW individual basis funct.   = True 
 Initial nuclear kin. energy  =  0.10000 hartree
 Initial electr. kin. energy  =  0.00000 hartree
   Initial electr. KE scheme  =  0
 Multitime step - NDtrC       =       1
 Multitime step - NDtrP       =       1
 No Thermostats chosen to control nuclear temperature

 Integration parameters:

 Follow Rxn Path (DVV)        = False
 Constraint Scheme            =      10
 Projection of angular mom.   = True 
 Rotate density with nuclei   = True 
 ------------------------------------------------------------------------
 TRJ-TRJ-TRJ-TRJ-TRJ-TRJ-TRJ-TRJ-TRJ-TRJ-TRJ-TRJ-TRJ-TRJ-TRJ-TRJ-TRJ-TRJ
 ---------------------------------------------------------------------------------------------------
                            Z-MATRIX (ANGSTROMS AND DEGREES)
   CD    Cent   Atom    N1       Length/X        N2       Alpha/Y        N3        Beta/Z          J
 ---------------------------------------------------------------------------------------------------
      1      1  F        0   0.487766          0.000000          0.000000
      2      2  H        0  -0.487766          0.000000          0.000000
 ---------------------------------------------------------------------------------------------------
                         Z-Matrix orientation:                         
 ---------------------------------------------------------------------
 Center     Atomic      Atomic             Coordinates (Angstroms)
 Number     Number       Type             X           Y           Z
 ---------------------------------------------------------------------
      1          9           0        0.487766    0.000000    0.000000
      2          1           0       -0.487766    0.000000    0.000000
 ---------------------------------------------------------------------
 Symmetry turned off by external request.
 Stoichiometry    FH
 Framework group  C*V[C*(HF)]
 Deg. of freedom     1
 Full point group                 C*V     NOp   4
 Rotational constants (GHZ):           0.0000000         554.8775261         554.8775261
 Standard basis: 6-31G(d) (6D, 7F)
    17 basis functions,    32 primitive gaussians,    17 cartesian basis functions
     5 alpha electrons        5 beta electrons
       nuclear repulsion energy         4.8820488700 Hartrees.
 NAtoms=    2 NActive=    2 NUniq=    2 SFac= 1.00D+00 NAtFMM=   60 NAOKFM=F Big=F
 Integral buffers will be    131072 words long.
 Raffenetti 2 integral format.
 Two-electron integral symmetry is turned off.
 One-electron integrals computed using PRISM.
 NBasis=    17 RedAO= T EigKep=  1.30D-02  NBF=    17
 NBsUse=    17 1.00D-06 EigRej= -1.00D+00 NBFU=    17
 ExpMin= 1.61D-01 ExpMax= 7.00D+03 ExpMxC= 1.05D+03 IAcc=3 IRadAn=         5 AccDes= 0.00D+00
 Harris functional with IExCor=  402 and IRadAn=       5 diagonalized for initial guess.
 HarFok:  IExCor=  402 AccDes= 0.00D+00 IRadAn=         5 IDoV= 1 UseB2=F ITyADJ=14
 ICtDFT=  3500011 ScaDFX=  1.000000  1.000000  1.000000  1.000000
 FoFCou: FMM=F IPFlag=           0 FMFlag=      100000 FMFlg1=           0
         NFxFlg=           0 DoJE=T BraDBF=F KetDBF=T FulRan=T
         wScrn=  0.000000 ICntrl=       500 IOpCl=  0 I1Cent=   200000004 NGrid=           0
         NMat0=    1 NMatS0=      1 NMatT0=    0 NMatD0=    1 NMtDS0=    0 NMtDT0=    0
 Symmetry not used in FoFCou.
 Keep R1 ints in memory in canonical form, NReq=6914438.
 Requested convergence on RMS density matrix=1.00D-08 within 128 cycles.
 Requested convergence on MAX density matrix=1.00D-06.
 Requested convergence on             energy=1.00D-06.
 No special actions if energy rises.
 Integral accuracy reduced to 1.0D-05 until final iterations.
 Initial convergence to 1.0D-05 achieved.  Increase integral accuracy.
 SCF Done:  E(RB3LYP) =  -100.418557075     A.U. after    9 cycles
            NFock=  9  Conv=0.24D-08     -V/T= 2.0066

 **********************************************************************

            Population analysis using the SCF Density.

 **********************************************************************

 Alpha  occ. eigenvalues --  -24.66487  -1.15510  -0.51017  -0.37276  -0.37276
 Alpha virt. eigenvalues --    0.04678   0.76984   1.08865   1.18088   1.18088
 Alpha virt. eigenvalues --    1.44151   1.80929   1.80929   1.87373   1.87373
 Alpha virt. eigenvalues --    2.52749   3.64842
          Condensed to atoms (all electrons):
               1          2
     1  F    9.264587   0.194979
     2  H    0.194979   0.345456
 Mulliken charges:
               1
     1  F   -0.459566
     2  H    0.459566
 Sum of Mulliken charges =  -0.00000
 Mulliken charges with hydrogens summed into heavy atoms:
               1
     1  F   -0.000000
 Electronic spatial extent (au):  <R**2>=             20.1547
 Charge=             -0.0000 electrons
 Dipole moment (field-independent basis, Debye):
    X=             -1.9073    Y=             -0.0000    Z=             -0.0000  Tot=              1.9073
 Quadrupole moment (field-independent basis, Debye-Ang):
   XX=             -4.8124   YY=             -5.4344   ZZ=             -5.4344
   XY=             -0.0000   XZ=             -0.0000   YZ=              0.0000
 Traceless Quadrupole moment (field-independent basis, Debye-Ang):
   XX=              0.4146   YY=             -0.2073   ZZ=             -0.2073
   XY=             -0.0000   XZ=             -0.0000   YZ=              0.0000
 Octapole moment (field-independent basis, Debye-Ang**2):
  XXX=             -6.5541  YYY=             -0.0000  ZZZ=             -0.0000  XYY=             -2.2234
  XXY=             -0.0000  XXZ=             -0.0000  XZZ=             -2.2234  YZZ=             -0.0000
  YYZ=             -0.0000  XYZ=              0.0000
 Hexadecapole moment (field-independent basis, Debye-Ang**3):
 XXXX=             -9.4174 YYYY=             -2.9562 ZZZZ=             -2.9562 XXXY=             -0.0000
 XXXZ=             -0.0000 YYYX=             -0.0000 YYYZ=             -0.0000 ZZZX=             -0.0000
 ZZZY=             -0.0000 XXYY=             -2.1904 XXZZ=             -2.1904 YYZZ=             -0.9854
 XXYZ=              0.0000 YYXZ=             -0.0000 ZZXY=             -0.0000
 N-N= 4.882048870032D+00 E-N=-2.499313801145D+02  KE= 9.976012087833D+01
 Calling FoFJK, ICntrl=      2127 FMM=F ISym2X=0 I1Cent= 0 IOpClX= 0 NMat=1 NMatS=1 NMatT=0.
 -------------------------------------------------------------------
 Center     Atomic                   Forces (Hartrees/Bohr)
 Number     Number              X              Y              Z
 -------------------------------------------------------------------
      1        9          -0.038961484    0.000000000   -0.000000000
      2        1           0.038961484   -0.000000000    0.000000000
 -------------------------------------------------------------------
 Cartesian Forces:  Max     0.038961484 RMS     0.022494423
 TRJ-TRJ-TRJ-TRJ-TRJ-TRJ-TRJ-TRJ-TRJ-TRJ-TRJ-TRJ-TRJ-TRJ-TRJ-TRJ-TRJ-TRJ

 ADMP step      0
 Frobenius norm of [F,P] =     6.458443D-14
 Current gradient on entry to l121
 I=    1 X=   3.896148357081D-02 Y=   0.000000000000D+00 Z=   0.000000000000D+00
 I=    2 X=  -3.896148357081D-02 Y=   0.000000000000D+00 Z=   0.000000000000D+00

 Summary information for step      0
 Time (fs)     0.000000
 EKinC      =      0.1000000; EKinPA =      0.0000000; EKinPB =      0.0000000
 EKin       =      0.1000000; EPot   =   -100.4185571; ETot   =   -100.3185571
 ETot-EKinP =   -100.3185571
 Integrand for the Velocity-Velocity Auto-Correlation  Function =   1.875165883249D-01
 Angular momentum
   JX =  0.0000000000D+00  JY =  0.6742261818D-31  JZ = -0.2996560808D-31
 Jtot =  0.7378175324D-31 H-BAR;  J (Quantum Number) =  0.0000000000D+00
 Total energy  -1.003185571D+02 A.U.
 Total angular momentum   7.378175D-32 h-bar
 Tr(PA)-NA =  7.105D-15
 Tr(PA**2-PA) =  8.882D-15
 Tr[(PA**2-PA)**2] =  3.130D-16
 Cartesian coordinates:
 I=    1 X=   9.286676345476D-02 Y=   0.000000000000D+00 Z=   0.000000000000D+00
 I=    2 X=  -1.750621542294D+00 Y=   0.000000000000D+00 Z=   0.000000000000D+00
 MW Cartesian velocity:
 I=    1 X=  -9.719184085769D+13 Y=   0.000000000000D+00 Z=   0.000000000000D+00
 I=    2 X=   4.219838082150D+14 Y=   0.000000000000D+00 Z=   0.000000000000D+00
 TRJ-TRJ-TRJ-TRJ-TRJ-TRJ-TRJ-TRJ-TRJ-TRJ-TRJ-TRJ-TRJ-TRJ-TRJ-TRJ-TRJ-TRJ
                          Input orientation:                          
 ---------------------------------------------------------------------
 Center     Atomic      Atomic             Coordinates (Angstroms)
 Number     Number       Type             X           Y           Z
 ---------------------------------------------------------------------
      1          9           0        0.047958   -0.000000    0.000000
      2          1           0       -0.904050    0.000000   -0.000000
 ---------------------------------------------------------------------
 Symmetry turned off by external request.
 Stoichiometry    FH
 Framework group  C*V[C*(HF)]
 Deg. of freedom     1
 Full point group                 C*V     NOp   4
 Rotational constants (GHZ):           0.0000000         582.6388771         582.6388771
 Standard basis: 6-31G(d) (6D, 7F)
    17 basis functions,    32 primitive gaussians,    17 cartesian basis functions
     5 alpha electrons        5 beta electrons
       nuclear repulsion energy         5.0026864623 Hartrees.
 NAtoms=    2 NActive=    2 NUniq=    2 SFac= 1.00D+00 NAtFMM=   60 NAOKFM=F Big=F
 Integral buffers will be    131072 words long.
 Raffenetti 2 integral format.
 Two-electron integral symmetry is turned off.
 One-electron integrals computed using PRISM.
 NBasis=    17 RedAO= T EigKep=  1.27D-02  NBF=    17
 NBsUse=    17 1.00D-06 EigRej= -1.00D+00 NBFU=    17
 Keep R1 ints in memory in canonical form, NReq=6914438.
 Requested convergence on RMS density matrix=1.00D-08 within 128 cycles.
 Requested convergence on MAX density matrix=1.00D-06.
 Requested convergence on             energy=1.00D-06.
 No special actions if energy rises.
 SCF Done:  E(RB3LYP) =  -100.419284089     A.U. after    1 cycles
            NFock=  1  Conv=0.20D+01     -V/T= 2.0066
 Calling FoFJK, ICntrl=      2127 FMM=F ISym2X=0 I1Cent= 0 IOpClX= 0 NMat=1 NMatS=1 NMatT=0.
 -------------------------------------------------------------------
 Center     Atomic                   Forces (Hartrees/Bohr)
 Number     Number              X              Y              Z
 -------------------------------------------------------------------
      1        9           0.007284149    0.000000000   -0.000000000
      2        1          -0.007284149   -0.000000000    0.000000000
 -------------------------------------------------------------------
 Cartesian Forces:  Max     0.007284149 RMS     0.004205505
 TRJ-TRJ-TRJ-TRJ-TRJ-TRJ-TRJ-TRJ-TRJ-TRJ-TRJ-TRJ-TRJ-TRJ-TRJ-TRJ-TRJ-TRJ

 ADMP step      1
 Frobenius norm of [F,P] =     3.722082D-02
 Current gradient on entry to l121
 I=    1 X=  -7.284148799934D-03 Y=   0.000000000000D+00 Z=   0.000000000000D+00
 I=    2 X=   7.284148799934D-03 Y=   0.000000000000D+00 Z=   0.000000000000D+00

 Summary information for step      1
 Time (fs)     0.100000
 EKinC      =      0.1007023; EKinPA =      0.0000162; EKinPB =      0.0000162
 EKin       =      0.1007347; EPot   =   -100.4192841; ETot   =   -100.3185493
 ETot-EKinP =   -100.3185818
 Adiabaticity Index =    1.4355D-27
 Total Fictitiious Kinetic Energy =      0.0003243
 Integrand for the Velocity-Velocity Auto-Correlation  Function =   1.881739125983D-01
 Angular momentum
   JX = -0.4248237983D-62  JY =  0.2070223703D-30  JZ =  0.7542818754D-30
 Jtot =  0.7821760731D-30 H-BAR;  J (Quantum Number) =  0.0000000000D+00
 Total energy  -1.003185493D+02  Delta-E   7.725293D-06 A.U.
 Total angular momentum   7.821761D-31  Delta-A   7.083943D-31 h-bar
 Tr(PA)-NA =  0.000D+00
 Tr(PA**2-PA) =  0.000D+00
 Tr[(PA**2-PA)**2] =  1.950D-16
 Cartesian coordinates:
 I=    1 X=   9.062732213990D-02 Y=   0.000000000000D+00 Z=   0.000000000000D+00
 I=    2 X=  -1.708406070767D+00 Y=   0.000000000000D+00 Z=   0.000000000000D+00
 MW Cartesian velocity:
 I=    1 X=  -9.753253901532D+13 Y=   0.000000000000D+00 Z=   0.000000000000D+00
 I=    2 X=   4.234630384131D+14 Y=   0.000000000000D+00 Z=   0.000000000000D+00
 TRJ-TRJ-TRJ-TRJ-TRJ-TRJ-TRJ-TRJ-TRJ-TRJ-TRJ-TRJ-TRJ-TRJ-TRJ-TRJ-TRJ-TRJ
                          Input orientation:                          
 ---------------------------------------------------------------------
 Center     Atomic      Atomic             Coordinates (Angstroms)
 Number     Number       Type             X           Y           Z
 ---------------------------------------------------------------------
      1          9           0        0.046775   -0.000000   -0.000000
      2          1           0       -0.881746    0.000000    0.000000
 ---------------------------------------------------------------------
 Symmetry turned off by external request.
 Stoichiometry    FH
 Framework group  C*V[C*(HF)]
 Deg. of freedom     1
 Full point group                 C*V     NOp   4
 Rotational constants (GHZ):           0.0000000         612.4871578         612.4871578
 Standard basis: 6-31G(d) (6D, 7F)
    17 basis functions,    32 primitive gaussians,    17 cartesian basis functions
     5 alpha electrons        5 beta electrons
       nuclear repulsion energy         5.1292285203 Hartrees.
 NAtoms=    2 NActive=    2 NUniq=    2 SFac= 1.00D+00 NAtFMM=   60 NAOKFM=F Big=F
 Integral buffers will be    131072 words long.
 Raffenetti 2 integral format.
 Two-electron integral symmetry is turned off.
 One-electron integrals computed using PRISM.
 NBasis=    17 RedAO= T EigKep=  1.24D-02  NBF=    17
 NBsUse=    17 1.00D-06 EigRej= -1.00D+00 NBFU=    17
 Keep R1 ints in memory in canonical form, NReq=6914438.
 Requested convergence on RMS density matrix=1.00D-08 within 128 cycles.
 Requested convergence on MAX density matrix=1.00D-06.
 Requested convergence on             energy=1.00D-06.
 No special actions if energy rises.
 SCF Done:  E(RB3LYP) =  -100.418311526     A.U. after    1 cycles
            NFock=  1  Conv=0.20D+01     -V/T= 2.0065
 Calling FoFJK, ICntrl=      2127 FMM=F ISym2X=0 I1Cent= 0 IOpClX= 0 NMat=1 NMatS=1 NMatT=0.
 -------------------------------------------------------------------
 Center     Atomic                   Forces (Hartrees/Bohr)
 Number     Number              X              Y              Z
 -------------------------------------------------------------------
      1        9           0.053689389    0.000000000   -0.000000000
      2        1          -0.053689389   -0.000000000    0.000000000
 -------------------------------------------------------------------
 Cartesian Forces:  Max     0.053689389 RMS     0.030997583
 TRJ-TRJ-TRJ-TRJ-TRJ-TRJ-TRJ-TRJ-TRJ-TRJ-TRJ-TRJ-TRJ-TRJ-TRJ-TRJ-TRJ-TRJ

 ADMP step      2
 Frobenius norm of [F,P] =     6.567339D-02
 Current gradient on entry to l121
 I=    1 X=  -5.368938934078D-02 Y=   0.000000000000D+00 Z=   0.000000000000D+00
 I=    2 X=   5.368938934078D-02 Y=   0.000000000000D+00 Z=   0.000000000000D+00

 Summary information for step      2
 Time (fs)     0.200000
 EKinC      =      0.0993527; EKinPA =      0.0002295; EKinPB =      0.0002295
 EKin       =      0.0998118; EPot   =   -100.4183115; ETot   =   -100.3184998
 ETot-EKinP =   -100.3189589
 Adiabaticity Index =    5.7757D-04
 Integrand for the Velocity-Velocity Auto-Correlation  Function =   1.869086739997D-01
 Angular momentum
   JX =  0.5987796630D-64  JY =  0.3689363288D-30  JZ =  0.1655429044D-30
 Jtot =  0.4043741682D-30 H-BAR;  J (Quantum Number) =  0.0000000000D+00
 Total energy  -1.003184998D+02  Delta-E   4.958375D-05 A.U.
 Total angular momentum   4.043742D-31  Delta-A  -3.778019D-31 h-bar
 Tr(PA)-NA =  1.776D-15
 Tr(PA**2-PA) =  5.640D-12
 Tr[(PA**2-PA)**2] =  3.426D-13
 Cartesian coordinates:
 I=    1 X=   8.839147559750D-02 Y=   0.000000000000D+00 Z=   0.000000000000D+00
 I=    2 X=  -1.666258363915D+00 Y=   0.000000000000D+00 Z=   0.000000000000D+00
 MW Cartesian velocity:
 I=    1 X=  -9.687675240135D+13 Y=   0.000000000000D+00 Z=   0.000000000000D+00
 I=    2 X=   4.206157692360D+14 Y=   0.000000000000D+00 Z=   0.000000000000D+00
 TRJ-TRJ-TRJ-TRJ-TRJ-TRJ-TRJ-TRJ-TRJ-TRJ-TRJ-TRJ-TRJ-TRJ-TRJ-TRJ-TRJ-TRJ
                          Input orientation:                          
 ---------------------------------------------------------------------
 Center     Atomic      Atomic             Coordinates (Angstroms)
 Number     Number       Type             X           Y           Z
 ---------------------------------------------------------------------
      1          9           0        0.045606    0.000000   -0.000000
      2          1           0       -0.859707   -0.000000    0.000000
 ---------------------------------------------------------------------
 Symmetry turned off by external request.
 Stoichiometry    FH
 Framework group  C*V[C*(HF)]
 Deg. of freedom     1
 Full point group                 C*V     NOp   4
 Rotational constants (GHZ):           0.0000000         644.2929178         644.2929178
 Standard basis: 6-31G(d) (6D, 7F)
    17 basis functions,    32 primitive gaussians,    17 cartesian basis functions
     5 alpha electrons        5 beta electrons
       nuclear repulsion energy         5.2607205619 Hartrees.
 NAtoms=    2 NActive=    2 NUniq=    2 SFac= 1.00D+00 NAtFMM=   60 NAOKFM=F Big=F
 Integral buffers will be    131072 words long.
 Raffenetti 2 integral format.
 Two-electron integral symmetry is turned off.
 One-electron integrals computed using PRISM.
 NBasis=    17 RedAO= T EigKep=  1.20D-02  NBF=    17
 NBsUse=    17 1.00D-06 EigRej= -1.00D+00 NBFU=    17
 Keep R1 ints in memory in canonical form, NReq=6914438.
 Requested convergence on RMS density matrix=1.00D-08 within 128 cycles.
 Requested convergence on MAX density matrix=1.00D-06.
 Requested convergence on             energy=1.00D-06.
 No special actions if energy rises.
 SCF Done:  E(RB3LYP) =  -100.416447395     A.U. after    1 cycles
            NFock=  1  Conv=0.20D+01     -V/T= 2.0061
 Calling FoFJK, ICntrl=      2127 FMM=F ISym2X=0 I1Cent= 0 IOpClX= 0 NMat=1 NMatS=1 NMatT=0.
 -------------------------------------------------------------------
 Center     Atomic                   Forces (Hartrees/Bohr)
 Number     Number              X              Y              Z
 -------------------------------------------------------------------
      1        9           0.094557759    0.000000000   -0.000000000
      2        1          -0.094557759   -0.000000000    0.000000000
 -------------------------------------------------------------------
 Cartesian Forces:  Max     0.094557759 RMS     0.054592948
 TRJ-TRJ-TRJ-TRJ-TRJ-TRJ-TRJ-TRJ-TRJ-TRJ-TRJ-TRJ-TRJ-TRJ-TRJ-TRJ-TRJ-TRJ

 ADMP step      3
 Frobenius norm of [F,P] =     7.683625D-02
 Current gradient on entry to l121
 I=    1 X=  -9.455775889188D-02 Y=   0.000000000000D+00 Z=   0.000000000000D+00
 I=    2 X=   9.455775889188D-02 Y=   0.000000000000D+00 Z=   0.000000000000D+00

 Summary information for step      3
 Time (fs)     0.300000
 EKinC      =      0.0961092; EKinPA =      0.0009308; EKinPB =      0.0009308
 EKin       =      0.0979708; EPot   =   -100.4164474; ETot   =   -100.3184766
 ETot-EKinP =   -100.3203382
 Adiabaticity Index =    2.8696D-03
 Integrand for the Velocity-Velocity Auto-Correlation  Function =   1.838324540559D-01
 Angular momentum
   JX =  0.7945113293D-64  JY =  0.2998455383D-30  JZ =  0.2271099885D-30
 Jtot =  0.3761466386D-30 H-BAR;  J (Quantum Number) =  0.0000000000D+00
 Total energy  -1.003184766D+02  Delta-E   2.317943D-05 A.U.
 Total angular momentum   3.761466D-31  Delta-A  -2.822753D-32 h-bar
 Tr(PA)-NA = -1.776D-15
 Tr(PA**2-PA) =  2.038D-11
 Tr[(PA**2-PA)**2] =  9.964D-13
 Cartesian coordinates:
 I=    1 X=   8.618212510054D-02 Y=   0.000000000000D+00 Z=   0.000000000000D+00
 I=    2 X=  -1.624610131215D+00 Y=   0.000000000000D+00 Z=   0.000000000000D+00
 MW Cartesian velocity:
 I=    1 X=  -9.528231490708D+13 Y=   0.000000000000D+00 Z=   0.000000000000D+00
 I=    2 X=   4.136931016555D+14 Y=   0.000000000000D+00 Z=   0.000000000000D+00
 TRJ-TRJ-TRJ-TRJ-TRJ-TRJ-TRJ-TRJ-TRJ-TRJ-TRJ-TRJ-TRJ-TRJ-TRJ-TRJ-TRJ-TRJ
                          Input orientation:                          
 ---------------------------------------------------------------------
 Center     Atomic      Atomic             Coordinates (Angstroms)
 Number     Number       Type             X           Y           Z
 ---------------------------------------------------------------------
      1          9           0        0.044461    0.000000   -0.000000
      2          1           0       -0.838133   -0.000000    0.000000
 ---------------------------------------------------------------------
 Symmetry turned off by external request.
 Stoichiometry    FH
 Framework group  C*V[C*(HF)]
 Deg. of freedom     1
 Full point group                 C*V     NOp   4
 Rotational constants (GHZ):           0.0000000         677.8883898         677.8883898
 Standard basis: 6-31G(d) (6D, 7F)
    17 basis functions,    32 primitive gaussians,    17 cartesian basis functions
     5 alpha electrons        5 beta electrons
       nuclear repulsion energy         5.3961330925 Hartrees.
 NAtoms=    2 NActive=    2 NUniq=    2 SFac= 1.00D+00 NAtFMM=   60 NAOKFM=F Big=F
 Integral buffers will be    131072 words long.
 Raffenetti 2 integral format.
 Two-electron integral symmetry is turned off.
 One-electron integrals computed using PRISM.
 NBasis=    17 RedAO= T EigKep=  1.17D-02  NBF=    17
 NBsUse=    17 1.00D-06 EigRej= -1.00D+00 NBFU=    17
 Keep R1 ints in memory in canonical form, NReq=6914438.
 Requested convergence on RMS density matrix=1.00D-08 within 128 cycles.
 Requested convergence on MAX density matrix=1.00D-06.
 Requested convergence on             energy=1.00D-06.
 No special actions if energy rises.
 SCF Done:  E(RB3LYP) =  -100.414105126     A.U. after    1 cycles
            NFock=  1  Conv=0.20D+01     -V/T= 2.0054
 Calling FoFJK, ICntrl=      2127 FMM=F ISym2X=0 I1Cent= 0 IOpClX= 0 NMat=1 NMatS=1 NMatT=0.
 -------------------------------------------------------------------
 Center     Atomic                   Forces (Hartrees/Bohr)
 Number     Number              X              Y              Z
 -------------------------------------------------------------------
      1        9           0.126908604    0.000000000    0.000000000
      2        1          -0.126908604   -0.000000000   -0.000000000
 -------------------------------------------------------------------
 Cartesian Forces:  Max     0.126908604 RMS     0.073270717
 TRJ-TRJ-TRJ-TRJ-TRJ-TRJ-TRJ-TRJ-TRJ-TRJ-TRJ-TRJ-TRJ-TRJ-TRJ-TRJ-TRJ-TRJ

 ADMP step      4
 Frobenius norm of [F,P] =     6.896889D-02
 Current gradient on entry to l121
 I=    1 X=  -1.269086043749D-01 Y=   0.000000000000D+00 Z=   0.000000000000D+00
 I=    2 X=   1.269086043749D-01 Y=   0.000000000000D+00 Z=   0.000000000000D+00

 Summary information for step      4
 Time (fs)     0.400000
 EKinC      =      0.0913641; EKinPA =      0.0021114; EKinPB =      0.0021114
 EKin       =      0.0955868; EPot   =   -100.4141051; ETot   =   -100.3185183
 ETot-EKinP =   -100.3227411
 Adiabaticity Index =    5.9017D-03
 Integrand for the Velocity-Velocity Auto-Correlation  Function =   1.792368901500D-01
 Angular momentum
   JX =  0.4267849477D-64  JY =  0.3573081445D-30  JZ =  0.2084776354D-30
 Jtot =  0.4136810783D-30 H-BAR;  J (Quantum Number) =  0.0000000000D+00
 Total energy  -1.003185183D+02  Delta-E  -4.174253D-05 A.U.
 Total angular momentum   4.136811D-31  Delta-A   3.753444D-32 h-bar
 Tr(PA)-NA =  8.882D-16
 Tr(PA**2-PA) = -9.326D-14
 Tr[(PA**2-PA)**2] =  3.448D-15
 Cartesian coordinates:
 I=    1 X=   8.401943944197D-02 Y=   0.000000000000D+00 Z=   0.000000000000D+00
 I=    2 X=  -1.583841572451D+00 Y=   0.000000000000D+00 Z=   0.000000000000D+00
 MW Cartesian velocity:
 I=    1 X=  -9.290038528804D+13 Y=   0.000000000000D+00 Z=   0.000000000000D+00
 I=    2 X=   4.033513309609D+14 Y=   0.000000000000D+00 Z=   0.000000000000D+00
 TRJ-TRJ-TRJ-TRJ-TRJ-TRJ-TRJ-TRJ-TRJ-TRJ-TRJ-TRJ-TRJ-TRJ-TRJ-TRJ-TRJ-TRJ
                          Input orientation:                          
 ---------------------------------------------------------------------
 Center     Atomic      Atomic             Coordinates (Angstroms)
 Number     Number       Type             X           Y           Z
 ---------------------------------------------------------------------
      1          9           0        0.043350    0.000000   -0.000000
      2          1           0       -0.817184   -0.000000    0.000000
 ---------------------------------------------------------------------
 Symmetry turned off by external request.
 Stoichiometry    FH
 Framework group  C*V[C*(HF)]
 Deg. of freedom     1
 Full point group                 C*V     NOp   4
 Rotational constants (GHZ):           0.0000000         713.0900879         713.0900879
 Standard basis: 6-31G(d) (6D, 7F)
    17 basis functions,    32 primitive gaussians,    17 cartesian basis functions
     5 alpha electrons        5 beta electrons
       nuclear repulsion energy         5.5344663943 Hartrees.
 NAtoms=    2 NActive=    2 NUniq=    2 SFac= 1.00D+00 NAtFMM=   60 NAOKFM=F Big=F
 Integral buffers will be    131072 words long.
 Raffenetti 2 integral format.
 Two-electron integral symmetry is turned off.
 One-electron integrals computed using PRISM.
 NBasis=    17 RedAO= T EigKep=  1.14D-02  NBF=    17
 NBsUse=    17 1.00D-06 EigRej= -1.00D+00 NBFU=    17
 Keep R1 ints in memory in canonical form, NReq=6914438.
 Requested convergence on RMS density matrix=1.00D-08 within 128 cycles.
 Requested convergence on MAX density matrix=1.00D-06.
 Requested convergence on             energy=1.00D-06.
 No special actions if energy rises.
 SCF Done:  E(RB3LYP) =  -100.410754986     A.U. after    1 cycles
            NFock=  1  Conv=0.20D+01     -V/T= 2.0044
 Calling FoFJK, ICntrl=      2127 FMM=F ISym2X=0 I1Cent= 0 IOpClX= 0 NMat=1 NMatS=1 NMatT=0.
 -------------------------------------------------------------------
 Center     Atomic                   Forces (Hartrees/Bohr)
 Number     Number              X              Y              Z
 -------------------------------------------------------------------
      1        9           0.151920708   -0.000000000    0.000000000
      2        1          -0.151920708    0.000000000   -0.000000000
 -------------------------------------------------------------------
 Cartesian Forces:  Max     0.151920708 RMS     0.087711462
 TRJ-TRJ-TRJ-TRJ-TRJ-TRJ-TRJ-TRJ-TRJ-TRJ-TRJ-TRJ-TRJ-TRJ-TRJ-TRJ-TRJ-TRJ

 ADMP step      5
 Frobenius norm of [F,P] =     5.280901D-02
 Current gradient on entry to l121
 I=    1 X=  -1.519207077414D-01 Y=   0.000000000000D+00 Z=   0.000000000000D+00
 I=    2 X=   1.519207077414D-01 Y=   0.000000000000D+00 Z=   0.000000000000D+00

 Summary information for step      5
 Time (fs)     0.500000
 EKinC      =      0.0855607; EKinPA =      0.0033048; EKinPB =      0.0033048
 EKin       =      0.0921702; EPot   =   -100.4107550; ETot   =   -100.3185848
 ETot-EKinP =   -100.3251943
 Adiabaticity Index =    7.1616D-03
 Integrand for the Velocity-Velocity Auto-Correlation  Function =   1.734510096047D-01
 Angular momentum
   JX =  0.5799603767D-64  JY =  0.2667761648D-30  JZ =  0.1656202856D-30
 Jtot =  0.3140057342D-30 H-BAR;  J (Quantum Number) =  0.0000000000D+00
 Total energy  -1.003185848D+02  Delta-E  -6.645720D-05 A.U.
 Total angular momentum   3.140057D-31  Delta-A  -9.967534D-32 h-bar
 Tr(PA)-NA =  0.000D+00
 Tr(PA**2-PA) =  8.171D-14
 Tr[(PA**2-PA)**2] =  5.225D-15
 Cartesian coordinates:
 I=    1 X=   8.191938396397D-02 Y=   0.000000000000D+00 Z=   0.000000000000D+00
 I=    2 X=  -1.544253648601D+00 Y=   0.000000000000D+00 Z=   0.000000000000D+00
 MW Cartesian velocity:
 I=    1 X=  -8.990150190282D+13 Y=   0.000000000000D+00 Z=   0.000000000000D+00
 I=    2 X=   3.903308940587D+14 Y=   0.000000000000D+00 Z=   0.000000000000D+00
 TRJ-TRJ-TRJ-TRJ-TRJ-TRJ-TRJ-TRJ-TRJ-TRJ-TRJ-TRJ-TRJ-TRJ-TRJ-TRJ-TRJ-TRJ
                          Input orientation:                          
 ---------------------------------------------------------------------
 Center     Atomic      Atomic             Coordinates (Angstroms)
 Number     Number       Type             X           Y           Z
 ---------------------------------------------------------------------
      1          9           0        0.042278    0.000000   -0.000000
      2          1           0       -0.796983   -0.000000    0.000000
 ---------------------------------------------------------------------
 Symmetry turned off by external request.
 Stoichiometry    FH
 Framework group  C*V[C*(HF)]
 Deg. of freedom     1
 Full point group                 C*V     NOp   4
 Rotational constants (GHZ):           0.0000000         749.6976305         749.6976305
 Standard basis: 6-31G(d) (6D, 7F)
    17 basis functions,    32 primitive gaussians,    17 cartesian basis functions
     5 alpha electrons        5 beta electrons
       nuclear repulsion energy         5.6747485687 Hartrees.
 NAtoms=    2 NActive=    2 NUniq=    2 SFac= 1.00D+00 NAtFMM=   60 NAOKFM=F Big=F
 Integral buffers will be    131072 words long.
 Raffenetti 2 integral format.
 Two-electron integral symmetry is turned off.
 One-electron integrals computed using PRISM.
 NBasis=    17 RedAO= T EigKep=  1.11D-02  NBF=    17
 NBsUse=    17 1.00D-06 EigRej= -1.00D+00 NBFU=    17
 Keep R1 ints in memory in canonical form, NReq=6914438.
 Requested convergence on RMS density matrix=1.00D-08 within 128 cycles.
 Requested convergence on MAX density matrix=1.00D-06.
 Requested convergence on             energy=1.00D-06.
 No special actions if energy rises.
 SCF Done:  E(RB3LYP) =  -100.405531619     A.U. after    1 cycles
            NFock=  1  Conv=0.20D+01     -V/T= 2.0032
 Calling FoFJK, ICntrl=      2127 FMM=F ISym2X=0 I1Cent= 0 IOpClX= 0 NMat=1 NMatS=1 NMatT=0.
 -------------------------------------------------------------------
 Center     Atomic                   Forces (Hartrees/Bohr)
 Number     Number              X              Y              Z
 -------------------------------------------------------------------
      1        9           0.174488509   -0.000000000    0.000000000
      2        1          -0.174488509    0.000000000   -0.000000000
 -------------------------------------------------------------------
 Cartesian Forces:  Max     0.174488509 RMS     0.100740988
 TRJ-TRJ-TRJ-TRJ-TRJ-TRJ-TRJ-TRJ-TRJ-TRJ-TRJ-TRJ-TRJ-TRJ-TRJ-TRJ-TRJ-TRJ

 ADMP step      6
 Frobenius norm of [F,P] =     5.573687D-02
 Current gradient on entry to l121
 I=    1 X=  -1.744885091782D-01 Y=   0.000000000000D+00 Z=   0.000000000000D+00
 I=    2 X=   1.744885091782D-01 Y=   0.000000000000D+00 Z=   0.000000000000D+00

 Summary information for step      6
 Time (fs)     0.600000
 EKinC      =      0.0790089; EKinPA =      0.0039605; EKinPB =      0.0039605
 EKin       =      0.0869299; EPot   =   -100.4055316; ETot   =   -100.3186017
 ETot-EKinP =   -100.3265227
 Adiabaticity Index =    5.3307D-03
 Integrand for the Velocity-Velocity Auto-Correlation  Function =   1.666778166299D-01
 Angular momentum
   JX =  0.1018296635D-47  JY =  0.1888811673D-30  JZ = -0.3962243236D-30
 Jtot =  0.4389416932D-30 H-BAR;  J (Quantum Number) =  0.0000000000D+00
 Total energy  -1.003186017D+02  Delta-E  -1.691929D-05 A.U.
 Total angular momentum   4.389417D-31  Delta-A   1.249360D-31 h-bar
 Tr(PA)-NA = -8.882D-16
 Tr(PA**2-PA) =  1.936D-13
 Tr[(PA**2-PA)**2] =  1.684D-14
 Cartesian coordinates:
 I=    1 X=   7.989430229413D-02 Y=   0.000000000000D+00 Z=   0.000000000000D+00
 I=    2 X=  -1.506079048085D+00 Y=   0.000000000000D+00 Z=   0.000000000000D+00
 MW Cartesian velocity:
 I=    1 X=  -8.639088399119D+13 Y=   0.000000000000D+00 Z=   0.000000000000D+00
 I=    2 X=   3.750886278102D+14 Y=   0.000000000000D+00 Z=   0.000000000000D+00
 TRJ-TRJ-TRJ-TRJ-TRJ-TRJ-TRJ-TRJ-TRJ-TRJ-TRJ-TRJ-TRJ-TRJ-TRJ-TRJ-TRJ-TRJ
                          Input orientation:                          
 ---------------------------------------------------------------------
 Center     Atomic      Atomic             Coordinates (Angstroms)
 Number     Number       Type             X           Y           Z
 ---------------------------------------------------------------------
      1          9           0        0.041252    0.000000   -0.000000
      2          1           0       -0.777641   -0.000000    0.000000
 ---------------------------------------------------------------------
 Symmetry turned off by external request.
 Stoichiometry    FH
 Framework group  C*V[C*(HF)]
 Deg. of freedom     1
 Full point group                 C*V     NOp   4
 Rotational constants (GHZ):           0.0000000         787.4556559         787.4556559
 Standard basis: 6-31G(d) (6D, 7F)
    17 basis functions,    32 primitive gaussians,    17 cartesian basis functions
     5 alpha electrons        5 beta electrons
       nuclear repulsion energy         5.8158956831 Hartrees.
 NAtoms=    2 NActive=    2 NUniq=    2 SFac= 1.00D+00 NAtFMM=   60 NAOKFM=F Big=F
 Integral buffers will be    131072 words long.
 Raffenetti 2 integral format.
 Two-electron integral symmetry is turned off.
 One-electron integrals computed using PRISM.
 NBasis=    17 RedAO= T EigKep=  1.08D-02  NBF=    17
 NBsUse=    17 1.00D-06 EigRej= -1.00D+00 NBFU=    17
 Keep R1 ints in memory in canonical form, NReq=6914438.
 Requested convergence on RMS density matrix=1.00D-08 within 128 cycles.
 Requested convergence on MAX density matrix=1.00D-06.
 Requested convergence on             energy=1.00D-06.
 No special actions if energy rises.
 SCF Done:  E(RB3LYP) =  -100.398318120     A.U. after    1 cycles
            NFock=  1  Conv=0.20D+01     -V/T= 2.0020
 Calling FoFJK, ICntrl=      2127 FMM=F ISym2X=0 I1Cent= 0 IOpClX= 0 NMat=1 NMatS=1 NMatT=0.
 -------------------------------------------------------------------
 Center     Atomic                   Forces (Hartrees/Bohr)
 Number     Number              X              Y              Z
 -------------------------------------------------------------------
      1        9           0.201091387   -0.000000000    0.000000000
      2        1          -0.201091387    0.000000000   -0.000000000
 -------------------------------------------------------------------
 Cartesian Forces:  Max     0.201091387 RMS     0.116100166
 TRJ-TRJ-TRJ-TRJ-TRJ-TRJ-TRJ-TRJ-TRJ-TRJ-TRJ-TRJ-TRJ-TRJ-TRJ-TRJ-TRJ-TRJ

 ADMP step      7
 Frobenius norm of [F,P] =     7.851118D-02
 Current gradient on entry to l121
 I=    1 X=  -2.010913867351D-01 Y=   0.000000000000D+00 Z=   0.000000000000D+00
 I=    2 X=   2.010913867350D-01 Y=   0.000000000000D+00 Z=   0.000000000000D+00

 Summary information for step      7
 Time (fs)     0.700000
 EKinC      =      0.0717931; EKinPA =      0.0039870; EKinPB =      0.0039870
 EKin       =      0.0797670; EPot   =   -100.3983181; ETot   =   -100.3185511
 ETot-EKinP =   -100.3265250
 Adiabaticity Index =    2.0500D-03
 Integrand for the Velocity-Velocity Auto-Correlation  Function =   1.588843016781D-01
 Angular momentum
   JX =  0.1519555725D-63  JY =  0.1697599034D-30  JZ =  0.1939029844D-30
 Jtot =  0.2577145556D-30 H-BAR;  J (Quantum Number) =  0.0000000000D+00
 Total energy  -1.003185511D+02  Delta-E   5.057492D-05 A.U.
 Total angular momentum   2.577146D-31  Delta-A  -1.812271D-31 h-bar
 Tr(PA)-NA = -1.776D-15
 Tr(PA**2-PA) = -5.951D-13
 Tr[(PA**2-PA)**2] =  4.110D-14
 Cartesian coordinates:
 I=    1 X=   7.795533178193D-02 Y=   0.000000000000D+00 Z=   0.000000000000D+00
 I=    2 X=  -1.469527719900D+00 Y=   0.000000000000D+00 Z=   0.000000000000D+00
 MW Cartesian velocity:
 I=    1 X=  -8.235142235379D+13 Y=   0.000000000000D+00 Z=   0.000000000000D+00
 I=    2 X=   3.575502481495D+14 Y=   0.000000000000D+00 Z=   0.000000000000D+00
 TRJ-TRJ-TRJ-TRJ-TRJ-TRJ-TRJ-TRJ-TRJ-TRJ-TRJ-TRJ-TRJ-TRJ-TRJ-TRJ-TRJ-TRJ
                          Input orientation:                          
 ---------------------------------------------------------------------
 Center     Atomic      Atomic             Coordinates (Angstroms)
 Number     Number       Type             X           Y           Z
 ---------------------------------------------------------------------
      1          9           0        0.040279    0.000000   -0.000000
      2          1           0       -0.759288   -0.000000    0.000000
 ---------------------------------------------------------------------
 Symmetry turned off by external request.
 Stoichiometry    FH
 Framework group  C*V[C*(HF)]
 Deg. of freedom     1
 Full point group                 C*V     NOp   4
 Rotational constants (GHZ):           0.0000000         825.9816367         825.9816367
 Standard basis: 6-31G(d) (6D, 7F)
    17 basis functions,    32 primitive gaussians,    17 cartesian basis functions
     5 alpha electrons        5 beta electrons
       nuclear repulsion energy         5.9564671495 Hartrees.
 NAtoms=    2 NActive=    2 NUniq=    2 SFac= 1.00D+00 NAtFMM=   60 NAOKFM=F Big=F
 Integral buffers will be    131072 words long.
 Raffenetti 2 integral format.
 Two-electron integral symmetry is turned off.
 One-electron integrals computed using PRISM.
 NBasis=    17 RedAO= T EigKep=  1.06D-02  NBF=    17
 NBsUse=    17 1.00D-06 EigRej= -1.00D+00 NBFU=    17
 Keep R1 ints in memory in canonical form, NReq=6914438.
 Requested convergence on RMS density matrix=1.00D-08 within 128 cycles.
 Requested convergence on MAX density matrix=1.00D-06.
 Requested convergence on             energy=1.00D-06.
 No special actions if energy rises.
 SCF Done:  E(RB3LYP) =  -100.389987674     A.U. after    1 cycles
            NFock=  1  Conv=0.20D+01     -V/T= 2.0010
 Calling FoFJK, ICntrl=      2127 FMM=F ISym2X=0 I1Cent= 0 IOpClX= 0 NMat=1 NMatS=1 NMatT=0.
 -------------------------------------------------------------------
 Center     Atomic                   Forces (Hartrees/Bohr)
 Number     Number              X              Y              Z
 -------------------------------------------------------------------
      1        9           0.237024373   -0.000000000    0.000000000
      2        1          -0.237024373    0.000000000   -0.000000000
 -------------------------------------------------------------------
 Cartesian Forces:  Max     0.237024373 RMS     0.136846086
 TRJ-TRJ-TRJ-TRJ-TRJ-TRJ-TRJ-TRJ-TRJ-TRJ-TRJ-TRJ-TRJ-TRJ-TRJ-TRJ-TRJ-TRJ

 ADMP step      8
 Frobenius norm of [F,P] =     9.433477D-02
 Current gradient on entry to l121
 I=    1 X=  -2.370243730961D-01 Y=   0.000000000000D+00 Z=   0.000000000000D+00
 I=    2 X=   2.370243730961D-01 Y=   0.000000000000D+00 Z=   0.000000000000D+00

 Summary information for step      8
 Time (fs)     0.800000
 EKinC      =      0.0638123; EKinPA =      0.0038399; EKinPB =      0.0038399
 EKin       =      0.0714922; EPot   =   -100.3899877; ETot   =   -100.3184955
 ETot-EKinP =   -100.3261754
 Adiabaticity Index =    3.8988D-04
 Integrand for the Velocity-Velocity Auto-Correlation  Function =   1.497931289024D-01
 Angular momentum
   JX =  0.2541592125D-63  JY = -0.6579344750D-32  JZ =  0.1542460525D-30
 Jtot =  0.1543863093D-30 H-BAR;  J (Quantum Number) =  0.0000000000D+00
 Total energy  -1.003184955D+02  Delta-E   5.561524D-05 A.U.
 Total angular momentum   1.543863D-31  Delta-A  -1.033282D-31 h-bar
 Tr(PA)-NA =  0.000D+00
 Tr(PA**2-PA) = -2.643D-12
 Tr[(PA**2-PA)**2] =  9.823D-14
 Cartesian coordinates:
 I=    1 X=   7.611560111185D-02 Y=   0.000000000000D+00 Z=   0.000000000000D+00
 I=    2 X=  -1.434847151489D+00 Y=   0.000000000000D+00 Z=   0.000000000000D+00
 MW Cartesian velocity:
 I=    1 X=  -7.763937087330D+13 Y=   0.000000000000D+00 Z=   0.000000000000D+00
 I=    2 X=   3.370916436957D+14 Y=   0.000000000000D+00 Z=   0.000000000000D+00
 TRJ-TRJ-TRJ-TRJ-TRJ-TRJ-TRJ-TRJ-TRJ-TRJ-TRJ-TRJ-TRJ-TRJ-TRJ-TRJ-TRJ-TRJ
                          Input orientation:                          
 ---------------------------------------------------------------------
 Center     Atomic      Atomic             Coordinates (Angstroms)
 Number     Number       Type             X           Y           Z
 ---------------------------------------------------------------------
      1          9           0        0.039367    0.000000   -0.000000
      2          1           0       -0.742103   -0.000000    0.000000
 ---------------------------------------------------------------------
 Symmetry turned off by external request.
 Stoichiometry    FH
 Framework group  C*V[C*(HF)]
 Deg. of freedom     1
 Full point group                 C*V     NOp   4
 Rotational constants (GHZ):           0.0000000         864.6800481         864.6800481
 Standard basis: 6-31G(d) (6D, 7F)
    17 basis functions,    32 primitive gaussians,    17 cartesian basis functions
     5 alpha electrons        5 beta electrons
       nuclear repulsion energy         6.0944044703 Hartrees.
 NAtoms=    2 NActive=    2 NUniq=    2 SFac= 1.00D+00 NAtFMM=   60 NAOKFM=F Big=F
 Integral buffers will be    131072 words long.
 Raffenetti 2 integral format.
 Two-electron integral symmetry is turned off.
 One-electron integrals computed using PRISM.
 NBasis=    17 RedAO= T EigKep=  1.03D-02  NBF=    17
 NBsUse=    17 1.00D-06 EigRej= -1.00D+00 NBFU=    17
 Keep R1 ints in memory in canonical form, NReq=6914438.
 Requested convergence on RMS density matrix=1.00D-08 within 128 cycles.
 Requested convergence on MAX density matrix=1.00D-06.
 Requested convergence on             energy=1.00D-06.
 No special actions if energy rises.
 SCF Done:  E(RB3LYP) =  -100.381467279     A.U. after    1 cycles
            NFock=  1  Conv=0.20D+01     -V/T= 2.0003
 Calling FoFJK, ICntrl=      2127 FMM=F ISym2X=0 I1Cent= 0 IOpClX= 0 NMat=1 NMatS=1 NMatT=0.
 -------------------------------------------------------------------
 Center     Atomic                   Forces (Hartrees/Bohr)
 Number     Number              X              Y              Z
 -------------------------------------------------------------------
      1        9           0.284248218   -0.000000000    0.000000000
      2        1          -0.284248218    0.000000000   -0.000000000
 -------------------------------------------------------------------
 Cartesian Forces:  Max     0.284248218 RMS     0.164110785
 TRJ-TRJ-TRJ-TRJ-TRJ-TRJ-TRJ-TRJ-TRJ-TRJ-TRJ-TRJ-TRJ-TRJ-TRJ-TRJ-TRJ-TRJ

 ADMP step      9
 Frobenius norm of [F,P] =     9.040917D-02
 Current gradient on entry to l121
 I=    1 X=  -2.842482182110D-01 Y=   0.000000000000D+00 Z=   0.000000000000D+00
 I=    2 X=   2.842482182110D-01 Y=   0.000000000000D+00 Z=   0.000000000000D+00

 Summary information for step      9
 Time (fs)     0.900000
 EKinC      =      0.0549291; EKinPA =      0.0040182; EKinPB =      0.0040182
 EKin       =      0.0629656; EPot   =   -100.3814673; ETot   =   -100.3185017
 ETot-EKinP =   -100.3265381
 Adiabaticity Index =    1.5260D-03
 Integrand for the Velocity-Velocity Auto-Correlation  Function =   1.389764004818D-01
 Angular momentum
   JX =  0.1908613250D-63  JY = -0.6739607216D-32  JZ =  0.1239385378D-30
 Jtot =  0.1241216478D-30 H-BAR;  J (Quantum Number) =  0.0000000000D+00
 Total energy  -1.003185017D+02  Delta-E  -6.211154D-06 A.U.
 Total angular momentum   1.241216D-31  Delta-A  -3.026466D-32 h-bar
 Tr(PA)-NA =  1.776D-15
 Tr(PA**2-PA) = -4.953D-12
 Tr[(PA**2-PA)**2] =  1.692D-13
 Cartesian coordinates:
 I=    1 X=   7.439284343473D-02 Y=   0.000000000000D+00 Z=   0.000000000000D+00
 I=    2 X=  -1.402371628606D+00 Y=   0.000000000000D+00 Z=   0.000000000000D+00
 MW Cartesian velocity:
 I=    1 X=  -7.203294556106D+13 Y=   0.000000000000D+00 Z=   0.000000000000D+00
 I=    2 X=   3.127498812303D+14 Y=   0.000000000000D+00 Z=   0.000000000000D+00
 TRJ-TRJ-TRJ-TRJ-TRJ-TRJ-TRJ-TRJ-TRJ-TRJ-TRJ-TRJ-TRJ-TRJ-TRJ-TRJ-TRJ-TRJ
                          Input orientation:                          
 ---------------------------------------------------------------------
 Center     Atomic      Atomic             Coordinates (Angstroms)
 Number     Number       Type             X           Y           Z
 ---------------------------------------------------------------------
      1          9           0        0.038530    0.000000   -0.000000
      2          1           0       -0.726317   -0.000000    0.000000
 ---------------------------------------------------------------------
 Symmetry turned off by external request.
 Stoichiometry    FH
 Framework group  C*V[C*(HF)]
 Deg. of freedom     1
 Full point group                 C*V     NOp   4
 Rotational constants (GHZ):           0.0000000         902.6748669         902.6748669
 Standard basis: 6-31G(d) (6D, 7F)
    17 basis functions,    32 primitive gaussians,    17 cartesian basis functions
     5 alpha electrons        5 beta electrons
       nuclear repulsion energy         6.2268618452 Hartrees.
 NAtoms=    2 NActive=    2 NUniq=    2 SFac= 1.00D+00 NAtFMM=   60 NAOKFM=F Big=F
 Integral buffers will be    131072 words long.
 Raffenetti 2 integral format.
 Two-electron integral symmetry is turned off.
 One-electron integrals computed using PRISM.
 NBasis=    17 RedAO= T EigKep=  1.01D-02  NBF=    17
 NBsUse=    17 1.00D-06 EigRej= -1.00D+00 NBFU=    17
 Keep R1 ints in memory in canonical form, NReq=6914438.
 Requested convergence on RMS density matrix=1.00D-08 within 128 cycles.
 Requested convergence on MAX density matrix=1.00D-06.
 Requested convergence on             energy=1.00D-06.
 No special actions if energy rises.
 SCF Done:  E(RB3LYP) =  -100.372751680     A.U. after    1 cycles
            NFock=  1  Conv=0.20D+01     -V/T= 2.0000
 Calling FoFJK, ICntrl=      2127 FMM=F ISym2X=0 I1Cent= 0 IOpClX= 0 NMat=1 NMatS=1 NMatT=0.
 -------------------------------------------------------------------
 Center     Atomic                   Forces (Hartrees/Bohr)
 Number     Number              X              Y              Z
 -------------------------------------------------------------------
      1        9           0.340642205   -0.000000000    0.000000000
      2        1          -0.340642205    0.000000000   -0.000000000
 -------------------------------------------------------------------
 Cartesian Forces:  Max     0.340642205 RMS     0.196669869
 TRJ-TRJ-TRJ-TRJ-TRJ-TRJ-TRJ-TRJ-TRJ-TRJ-TRJ-TRJ-TRJ-TRJ-TRJ-TRJ-TRJ-TRJ

 ADMP step     10
 Frobenius norm of [F,P] =     6.753476D-02
 Current gradient on entry to l121
 I=    1 X=  -3.406422047921D-01 Y=   0.000000000000D+00 Z=   0.000000000000D+00
 I=    2 X=   3.406422047921D-01 Y=   0.000000000000D+00 Z=   0.000000000000D+00

 Summary information for step     10
 Time (fs)     1.000000
 EKinC      =      0.0451572; EKinPA =      0.0045196; EKinPB =      0.0045196
 EKin       =      0.0541964; EPot   =   -100.3727517; ETot   =   -100.3185553
 ETot-EKinP =   -100.3275944
 Adiabaticity Index =    3.4667D-03
 Integrand for the Velocity-Velocity Auto-Correlation  Function =   1.260095380169D-01
 Angular momentum
   JX =  0.1070095714D-63  JY =  0.1039400616D-30  JZ =  0.1517270630D-30
 Jtot =  0.1839147575D-30 H-BAR;  J (Quantum Number) =  0.0000000000D+00
 Total energy  -1.003185553D+02  Delta-E  -5.353498D-05 A.U.
 Total angular momentum   1.839148D-31  Delta-A   5.979311D-32 h-bar
 Tr(PA)-NA =  0.000D+00
 Tr(PA**2-PA) = -5.946D-12
 Tr[(PA**2-PA)**2] =  2.045D-13
 Cartesian coordinates:
 I=    1 X=   7.281036400999D-02 Y=   0.000000000000D+00 Z=   0.000000000000D+00
 I=    2 X=  -1.372540476231D+00 Y=   0.000000000000D+00 Z=   0.000000000000D+00
 MW Cartesian velocity:
 I=    1 X=  -6.531208291967D+13 Y=   0.000000000000D+00 Z=   0.000000000000D+00
 I=    2 X=   2.835694974977D+14 Y=   0.000000000000D+00 Z=   0.000000000000D+00
 TRJ-TRJ-TRJ-TRJ-TRJ-TRJ-TRJ-TRJ-TRJ-TRJ-TRJ-TRJ-TRJ-TRJ-TRJ-TRJ-TRJ-TRJ
                          Input orientation:                          
 ---------------------------------------------------------------------
 Center     Atomic      Atomic             Coordinates (Angstroms)
 Number     Number       Type             X           Y           Z
 ---------------------------------------------------------------------
      1          9           0        0.037781    0.000000   -0.000000
      2          1           0       -0.712208   -0.000000    0.000000
 ---------------------------------------------------------------------
 Symmetry turned off by external request.
 Stoichiometry    FH
 Framework group  C*V[C*(HF)]
 Deg. of freedom     1
 Full point group                 C*V     NOp   4
 Rotational constants (GHZ):           0.0000000         938.7934937         938.7934937
 Standard basis: 6-31G(d) (6D, 7F)
    17 basis functions,    32 primitive gaussians,    17 cartesian basis functions
     5 alpha electrons        5 beta electrons
       nuclear repulsion energy         6.3502173527 Hartrees.
 NAtoms=    2 NActive=    2 NUniq=    2 SFac= 1.00D+00 NAtFMM=   60 NAOKFM=F Big=F
 Integral buffers will be    131072 words long.
 Raffenetti 2 integral format.
 Two-electron integral symmetry is turned off.
 One-electron integrals computed using PRISM.
 NBasis=    17 RedAO= T EigKep=  9.86D-03  NBF=    17
 NBsUse=    17 1.00D-06 EigRej= -1.00D+00 NBFU=    17
 Keep R1 ints in memory in canonical form, NReq=6914438.
 Requested convergence on RMS density matrix=1.00D-08 within 128 cycles.
 Requested convergence on MAX density matrix=1.00D-06.
 Requested convergence on             energy=1.00D-06.
 No special actions if energy rises.
 SCF Done:  E(RB3LYP) =  -100.363126460     A.U. after    1 cycles
            NFock=  1  Conv=0.20D+01     -V/T= 1.9999
 Calling FoFJK, ICntrl=      2127 FMM=F ISym2X=0 I1Cent= 0 IOpClX= 0 NMat=1 NMatS=1 NMatT=0.
 -------------------------------------------------------------------
 Center     Atomic                   Forces (Hartrees/Bohr)
 Number     Number              X              Y              Z
 -------------------------------------------------------------------
      1        9           0.400535454   -0.000000000   -0.000000000
      2        1          -0.400535454    0.000000000    0.000000000
 -------------------------------------------------------------------
 Cartesian Forces:  Max     0.400535454 RMS     0.231249252
 TRJ-TRJ-TRJ-TRJ-TRJ-TRJ-TRJ-TRJ-TRJ-TRJ-TRJ-TRJ-TRJ-TRJ-TRJ-TRJ-TRJ-TRJ

 ADMP step     11
 Frobenius norm of [F,P] =     4.305296D-02
 Current gradient on entry to l121
 I=    1 X=  -4.005354539708D-01 Y=   0.000000000000D+00 Z=   0.000000000000D+00
 I=    2 X=   4.005354539707D-01 Y=   0.000000000000D+00 Z=   0.000000000000D+00

 Summary information for step     11
 Time (fs)     1.100000
 EKinC      =      0.0348068; EKinPA =      0.0048741; EKinPB =      0.0048741
 EKin       =      0.0445549; EPot   =   -100.3631265; ETot   =   -100.3185716
 ETot-EKinP =   -100.3283197
 Adiabaticity Index =    3.4019D-03
 Integrand for the Velocity-Velocity Auto-Correlation  Function =   1.106296435435D-01
 Angular momentum
   JX =  0.1424009808D-63  JY =  0.8459812033D-31  JZ =  0.1559754902D-30
 Jtot =  0.1774406817D-30 H-BAR;  J (Quantum Number) =  0.0000000000D+00
 Total energy  -1.003185716D+02  Delta-E  -1.631923D-05 A.U.
 Total angular momentum   1.774407D-31  Delta-A  -6.474076D-33 h-bar
 Tr(PA)-NA =  8.882D-16
 Tr(PA**2-PA) = -5.163D-12
 Tr[(PA**2-PA)**2] =  1.896D-13
 Cartesian coordinates:
 I=    1 X=   7.139599361852D-02 Y=   0.000000000000D+00 Z=   0.000000000000D+00
 I=    2 X=  -1.345878329473D+00 Y=   0.000000000000D+00 Z=   0.000000000000D+00
 MW Cartesian velocity:
 I=    1 X=  -5.734052013996D+13 Y=   0.000000000000D+00 Z=   0.000000000000D+00
 I=    2 X=   2.489588718575D+14 Y=   0.000000000000D+00 Z=   0.000000000000D+00
 TRJ-TRJ-TRJ-TRJ-TRJ-TRJ-TRJ-TRJ-TRJ-TRJ-TRJ-TRJ-TRJ-TRJ-TRJ-TRJ-TRJ-TRJ
                          Input orientation:                          
 ---------------------------------------------------------------------
 Center     Atomic      Atomic             Coordinates (Angstroms)
 Number     Number       Type             X           Y           Z
 ---------------------------------------------------------------------
      1          9           0        0.037137    0.000000   -0.000000
      2          1           0       -0.700071   -0.000000    0.000000
 ---------------------------------------------------------------------
 Symmetry turned off by external request.
 Stoichiometry    FH
 Framework group  C*V[C*(HF)]
 Deg. of freedom     1
 Full point group                 C*V     NOp   4
 Rotational constants (GHZ):           0.0000000         971.6275388         971.6275388
 Standard basis: 6-31G(d) (6D, 7F)
    17 basis functions,    32 primitive gaussians,    17 cartesian basis functions
     5 alpha electrons        5 beta electrons
       nuclear repulsion energy         6.4603115523 Hartrees.
 NAtoms=    2 NActive=    2 NUniq=    2 SFac= 1.00D+00 NAtFMM=   60 NAOKFM=F Big=F
 Integral buffers will be    131072 words long.
 Raffenetti 2 integral format.
 Two-electron integral symmetry is turned off.
 One-electron integrals computed using PRISM.
 NBasis=    17 RedAO= T EigKep=  9.67D-03  NBF=    17
 NBsUse=    17 1.00D-06 EigRej= -1.00D+00 NBFU=    17
 Keep R1 ints in memory in canonical form, NReq=6914438.
 Requested convergence on RMS density matrix=1.00D-08 within 128 cycles.
 Requested convergence on MAX density matrix=1.00D-06.
 Requested convergence on             energy=1.00D-06.
 No special actions if energy rises.
 SCF Done:  E(RB3LYP) =  -100.352416148     A.U. after    1 cycles
            NFock=  1  Conv=0.20D+01     -V/T= 1.9998
 Calling FoFJK, ICntrl=      2127 FMM=F ISym2X=0 I1Cent= 0 IOpClX= 0 NMat=1 NMatS=1 NMatT=0.
 -------------------------------------------------------------------
 Center     Atomic                   Forces (Hartrees/Bohr)
 Number     Number              X              Y              Z
 -------------------------------------------------------------------
      1        9           0.456166618   -0.000000000   -0.000000000
      2        1          -0.456166618    0.000000000    0.000000000
 -------------------------------------------------------------------
 Cartesian Forces:  Max     0.456166618 RMS     0.263367920
 TRJ-TRJ-TRJ-TRJ-TRJ-TRJ-TRJ-TRJ-TRJ-TRJ-TRJ-TRJ-TRJ-TRJ-TRJ-TRJ-TRJ-TRJ

 ADMP step     12
 Frobenius norm of [F,P] =     5.166087D-02
 Current gradient on entry to l121
 I=    1 X=  -4.561666180401D-01 Y=   0.000000000000D+00 Z=   0.000000000000D+00
 I=    2 X=   4.561666180401D-01 Y=   0.000000000000D+00 Z=   0.000000000000D+00

 Summary information for step     12
 Time (fs)     1.200000
 EKinC      =      0.0245193; EKinPA =      0.0046993; EKinPB =      0.0046993
 EKin       =      0.0339179; EPot   =   -100.3524161; ETot   =   -100.3184982
 ETot-EKinP =   -100.3278968
 Adiabaticity Index =    9.5099D-04
 Integrand for the Velocity-Velocity Auto-Correlation  Function =   9.285254610007D-02
 Angular momentum
   JX =  0.2326347478D-63  JY =  0.3869085532D-31  JZ =  0.1656737940D-30
 Jtot =  0.1701316794D-30 H-BAR;  J (Quantum Number) =  0.0000000000D+00
 Total energy  -1.003184982D+02  Delta-E   7.337796D-05 A.U.
 Total angular momentum   1.701317D-31  Delta-A  -7.309002D-33 h-bar
 Tr(PA)-NA =  2.665D-15
 Tr(PA**2-PA) = -3.625D-12
 Tr[(PA**2-PA)**2] =  1.530D-13
 Cartesian coordinates:
 I=    1 X=   7.017928994894D-02 Y=   0.000000000000D+00 Z=   0.000000000000D+00
 I=    2 X=  -1.322942377198D+00 Y=   0.000000000000D+00 Z=   0.000000000000D+00
 MW Cartesian velocity:
 I=    1 X=  -4.812646158084D+13 Y=   0.000000000000D+00 Z=   0.000000000000D+00
 I=    2 X=   2.089536256807D+14 Y=   0.000000000000D+00 Z=   0.000000000000D+00
 TRJ-TRJ-TRJ-TRJ-TRJ-TRJ-TRJ-TRJ-TRJ-TRJ-TRJ-TRJ-TRJ-TRJ-TRJ-TRJ-TRJ-TRJ
                          Input orientation:                          
 ---------------------------------------------------------------------
 Center     Atomic      Atomic             Coordinates (Angstroms)
 Number     Number       Type             X           Y           Z
 ---------------------------------------------------------------------
      1          9           0        0.036613    0.000000   -0.000000
      2          1           0       -0.690179   -0.000000    0.000000
 ---------------------------------------------------------------------
 Symmetry turned off by external request.
 Stoichiometry    FH
 Framework group  C*V[C*(HF)]
 Deg. of freedom     1
 Full point group                 C*V     NOp   4
 Rotational constants (GHZ):           0.0000000         999.6774045         999.6774045
 Standard basis: 6-31G(d) (6D, 7F)
    17 basis functions,    32 primitive gaussians,    17 cartesian basis functions
     5 alpha electrons        5 beta electrons
       nuclear repulsion energy         6.5528992811 Hartrees.
 NAtoms=    2 NActive=    2 NUniq=    2 SFac= 1.00D+00 NAtFMM=   60 NAOKFM=F Big=F
 Integral buffers will be    131072 words long.
 Raffenetti 2 integral format.
 Two-electron integral symmetry is turned off.
 One-electron integrals computed using PRISM.
 NBasis=    17 RedAO= T EigKep=  9.52D-03  NBF=    17
 NBsUse=    17 1.00D-06 EigRej= -1.00D+00 NBFU=    17
 Keep R1 ints in memory in canonical form, NReq=6914438.
 Requested convergence on RMS density matrix=1.00D-08 within 128 cycles.
 Requested convergence on MAX density matrix=1.00D-06.
 Requested convergence on             energy=1.00D-06.
 No special actions if energy rises.
 SCF Done:  E(RB3LYP) =  -100.341752622     A.U. after    1 cycles
            NFock=  1  Conv=0.20D+01     -V/T= 1.9996
 Calling FoFJK, ICntrl=      2127 FMM=F ISym2X=0 I1Cent= 0 IOpClX= 0 NMat=1 NMatS=1 NMatT=0.
 -------------------------------------------------------------------
 Center     Atomic                   Forces (Hartrees/Bohr)
 Number     Number              X              Y              Z
 -------------------------------------------------------------------
      1        9           0.499862182   -0.000000000   -0.000000000
      2        1          -0.499862182    0.000000000    0.000000000
 -------------------------------------------------------------------
 Cartesian Forces:  Max     0.499862182 RMS     0.288595565
 TRJ-TRJ-TRJ-TRJ-TRJ-TRJ-TRJ-TRJ-TRJ-TRJ-TRJ-TRJ-TRJ-TRJ-TRJ-TRJ-TRJ-TRJ

 ADMP step     13
 Frobenius norm of [F,P] =     7.391657D-02
 Current gradient on entry to l121
 I=    1 X=  -4.998621818976D-01 Y=   0.000000000000D+00 Z=   0.000000000000D+00
 I=    2 X=   4.998621818976D-01 Y=   0.000000000000D+00 Z=   0.000000000000D+00

 Summary information for step     13
 Time (fs)     1.300000
 EKinC      =      0.0151613; EKinPA =      0.0041038; EKinPB =      0.0041038
 EKin       =      0.0233689; EPot   =   -100.3417526; ETot   =   -100.3183837
 ETot-EKinP =   -100.3265913
 Adiabaticity Index =   -1.5617D-03
 Integrand for the Velocity-Velocity Auto-Correlation  Function =   7.301435766742D-02
 Angular momentum
   JX =  0.8524783828D-63  JY = -0.2376743135D-30  JZ =  0.2243034353D-30
 Jtot =  0.3268043916D-30 H-BAR;  J (Quantum Number) =  0.0000000000D+00
 Total energy  -1.003183837D+02  Delta-E   1.145138D-04 A.U.
 Total angular momentum   3.268044D-31  Delta-A   1.566727D-31 h-bar
 Tr(PA)-NA = -1.776D-15
 Tr(PA**2-PA) = -2.480D-12
 Tr[(PA**2-PA)**2] =  1.168D-13
 Cartesian coordinates:
 I=    1 X=   6.918770732453D-02 Y=   0.000000000000D+00 Z=   0.000000000000D+00
 I=    2 X=  -1.304250157951D+00 Y=   0.000000000000D+00 Z=   0.000000000000D+00
 MW Cartesian velocity:
 I=    1 X=  -3.784411765450D+13 Y=   0.000000000000D+00 Z=   0.000000000000D+00
 I=    2 X=   1.643101390554D+14 Y=   0.000000000000D+00 Z=   0.000000000000D+00
 TRJ-TRJ-TRJ-TRJ-TRJ-TRJ-TRJ-TRJ-TRJ-TRJ-TRJ-TRJ-TRJ-TRJ-TRJ-TRJ-TRJ-TRJ
                          Input orientation:                          
 ---------------------------------------------------------------------
 Center     Atomic      Atomic             Coordinates (Angstroms)
 Number     Number       Type             X           Y           Z
 ---------------------------------------------------------------------
      1          9           0        0.036218    0.000000   -0.000000
      2          1           0       -0.682749   -0.000000    0.000000
 ---------------------------------------------------------------------
 Symmetry turned off by external request.
 Stoichiometry    FH
 Framework group  C*V[C*(HF)]
 Deg. of freedom     1
 Full point group                 C*V     NOp   4
 Rotational constants (GHZ):           0.0000000        1021.5558017        1021.5558017
 Standard basis: 6-31G(d) (6D, 7F)
    17 basis functions,    32 primitive gaussians,    17 cartesian basis functions
     5 alpha electrons        5 beta electrons
       nuclear repulsion energy         6.6242177823 Hartrees.
 NAtoms=    2 NActive=    2 NUniq=    2 SFac= 1.00D+00 NAtFMM=   60 NAOKFM=F Big=F
 Integral buffers will be    131072 words long.
 Raffenetti 2 integral format.
 Two-electron integral symmetry is turned off.
 One-electron integrals computed using PRISM.
 NBasis=    17 RedAO= T EigKep=  9.41D-03  NBF=    17
 NBsUse=    17 1.00D-06 EigRej= -1.00D+00 NBFU=    17
 Keep R1 ints in memory in canonical form, NReq=6914438.
 Requested convergence on RMS density matrix=1.00D-08 within 128 cycles.
 Requested convergence on MAX density matrix=1.00D-06.
 Requested convergence on             energy=1.00D-06.
 No special actions if energy rises.
 SCF Done:  E(RB3LYP) =  -100.332867968     A.U. after    1 cycles
            NFock=  1  Conv=0.20D+01     -V/T= 1.9993
 Calling FoFJK, ICntrl=      2127 FMM=F ISym2X=0 I1Cent= 0 IOpClX= 0 NMat=1 NMatS=1 NMatT=0.
 -------------------------------------------------------------------
 Center     Atomic                   Forces (Hartrees/Bohr)
 Number     Number              X              Y              Z
 -------------------------------------------------------------------
      1        9           0.526399668   -0.000000000   -0.000000000
      2        1          -0.526399668    0.000000000    0.000000000
 -------------------------------------------------------------------
 Cartesian Forces:  Max     0.526399668 RMS     0.303916990
 TRJ-TRJ-TRJ-TRJ-TRJ-TRJ-TRJ-TRJ-TRJ-TRJ-TRJ-TRJ-TRJ-TRJ-TRJ-TRJ-TRJ-TRJ

 ADMP step     14
 Frobenius norm of [F,P] =     8.248019D-02
 Current gradient on entry to l121
 I=    1 X=  -5.263996680059D-01 Y=   0.000000000000D+00 Z=   0.000000000000D+00
 I=    2 X=   5.263996680059D-01 Y=   0.000000000000D+00 Z=   0.000000000000D+00

 Summary information for step     14
 Time (fs)     1.400000
 EKinC      =      0.0076071; EKinPA =      0.0034702; EKinPB =      0.0034702
 EKin       =      0.0145475; EPot   =   -100.3328680; ETot   =   -100.3183204
 ETot-EKinP =   -100.3252609
 Adiabaticity Index =   -2.0971D-03
 Integrand for the Velocity-Velocity Auto-Correlation  Function =   5.171879004336D-02
 Angular momentum
   JX =  0.1424037713D-62  JY = -0.4965382237D-30  JZ =  0.2662757974D-30
 Jtot =  0.5634296832D-30 H-BAR;  J (Quantum Number) =  0.0000000000D+00
 Total energy  -1.003183204D+02  Delta-E   6.325677D-05 A.U.
 Total angular momentum   5.634297D-31  Delta-A   2.366253D-31 h-bar
 Tr(PA)-NA =  2.665D-15
 Tr(PA**2-PA) = -1.923D-12
 Tr[(PA**2-PA)**2] =  8.709D-14
 Cartesian coordinates:
 I=    1 X=   6.844280977609D-02 Y=   0.000000000000D+00 Z=   0.000000000000D+00
 I=    2 X=  -1.290208172998D+00 Y=   0.000000000000D+00 Z=   0.000000000000D+00
 MW Cartesian velocity:
 I=    1 X=  -2.680639860265D+13 Y=   0.000000000000D+00 Z=   0.000000000000D+00
 I=    2 X=   1.163869936720D+14 Y=   0.000000000000D+00 Z=   0.000000000000D+00
 TRJ-TRJ-TRJ-TRJ-TRJ-TRJ-TRJ-TRJ-TRJ-TRJ-TRJ-TRJ-TRJ-TRJ-TRJ-TRJ-TRJ-TRJ
                          Input orientation:                          
 ---------------------------------------------------------------------
 Center     Atomic      Atomic             Coordinates (Angstroms)
 Number     Number       Type             X           Y           Z
 ---------------------------------------------------------------------
      1          9           0        0.035962    0.000000   -0.000000
      2          1           0       -0.677910   -0.000000    0.000000
 ---------------------------------------------------------------------
 Symmetry turned off by external request.
 Stoichiometry    FH
 Framework group  C*V[C*(HF)]
 Deg. of freedom     1
 Full point group                 C*V     NOp   4
 Rotational constants (GHZ):           0.0000000        1036.1926124        1036.1926124
 Standard basis: 6-31G(d) (6D, 7F)
    17 basis functions,    32 primitive gaussians,    17 cartesian basis functions
     5 alpha electrons        5 beta electrons
       nuclear repulsion energy         6.6715047670 Hartrees.
 NAtoms=    2 NActive=    2 NUniq=    2 SFac= 1.00D+00 NAtFMM=   60 NAOKFM=F Big=F
 Integral buffers will be    131072 words long.
 Raffenetti 2 integral format.
 Two-electron integral symmetry is turned off.
 One-electron integrals computed using PRISM.
 NBasis=    17 RedAO= T EigKep=  9.34D-03  NBF=    17
 NBsUse=    17 1.00D-06 EigRej= -1.00D+00 NBFU=    17
 Keep R1 ints in memory in canonical form, NReq=6914438.
 Requested convergence on RMS density matrix=1.00D-08 within 128 cycles.
 Requested convergence on MAX density matrix=1.00D-06.
 Requested convergence on             energy=1.00D-06.
 No special actions if energy rises.
 SCF Done:  E(RB3LYP) =  -100.326749343     A.U. after    1 cycles
            NFock=  1  Conv=0.20D+01     -V/T= 1.9987
 Calling FoFJK, ICntrl=      2127 FMM=F ISym2X=0 I1Cent= 0 IOpClX= 0 NMat=1 NMatS=1 NMatT=0.
 -------------------------------------------------------------------
 Center     Atomic                   Forces (Hartrees/Bohr)
 Number     Number              X              Y              Z
 -------------------------------------------------------------------
      1        9           0.534561843   -0.000000000   -0.000000000
      2        1          -0.534561843    0.000000000    0.000000000
 -------------------------------------------------------------------
 Cartesian Forces:  Max     0.534561843 RMS     0.308629424
 TRJ-TRJ-TRJ-TRJ-TRJ-TRJ-TRJ-TRJ-TRJ-TRJ-TRJ-TRJ-TRJ-TRJ-TRJ-TRJ-TRJ-TRJ

 ADMP step     15
 Frobenius norm of [F,P] =     7.685839D-02
 Current gradient on entry to l121
 I=    1 X=  -5.345618434373D-01 Y=   0.000000000000D+00 Z=   0.000000000000D+00
 I=    2 X=   5.345618434373D-01 Y=   0.000000000000D+00 Z=   0.000000000000D+00

 Summary information for step     15
 Time (fs)     1.500000
 EKinC      =      0.0025091; EKinPA =      0.0029541; EKinPB =      0.0029541
 EKin       =      0.0084173; EPot   =   -100.3267493; ETot   =   -100.3183320
 ETot-EKinP =   -100.3242402
 Adiabaticity Index =   -1.2960D-03
 Integrand for the Velocity-Velocity Auto-Correlation  Function =   2.970318299765D-02
 Angular momentum
   JX =  0.1508858073D-62  JY = -0.5254276302D-30  JZ =  0.3030692266D-30
 Jtot =  0.6065683397D-30 H-BAR;  J (Quantum Number) =  0.0000000000D+00
 Total energy  -1.003183320D+02  Delta-E  -1.156249D-05 A.U.
 Total angular momentum   6.065683D-31  Delta-A   4.313866D-32 h-bar
 Tr(PA)-NA =  8.882D-16
 Tr(PA**2-PA) = -1.505D-12
 Tr[(PA**2-PA)**2] =  6.296D-14
 Cartesian coordinates:
 I=    1 X=   6.795769371703D-02 Y=   0.000000000000D+00 Z=   0.000000000000D+00
 I=    2 X=  -1.281063301443D+00 Y=   0.000000000000D+00 Z=   0.000000000000D+00
 MW Cartesian velocity:
 I=    1 X=  -1.539547546520D+13 Y=   0.000000000000D+00 Z=   0.000000000000D+00
 I=    2 X=   6.684348509871D+13 Y=   0.000000000000D+00 Z=   0.000000000000D+00
 TRJ-TRJ-TRJ-TRJ-TRJ-TRJ-TRJ-TRJ-TRJ-TRJ-TRJ-TRJ-TRJ-TRJ-TRJ-TRJ-TRJ-TRJ
                          Input orientation:                          
 ---------------------------------------------------------------------
 Center     Atomic      Atomic             Coordinates (Angstroms)
 Number     Number       Type             X           Y           Z
 ---------------------------------------------------------------------
      1          9           0        0.035845    0.000000    0.000000
      2          1           0       -0.675702   -0.000000   -0.000000
 ---------------------------------------------------------------------
 Symmetry turned off by external request.
 Stoichiometry    FH
 Framework group  C*V[C*(HF)]
 Deg. of freedom     1
 Full point group                 C*V     NOp   4
 Rotational constants (GHZ):           0.0000000        1042.9745139        1042.9745139
 Standard basis: 6-31G(d) (6D, 7F)
    17 basis functions,    32 primitive gaussians,    17 cartesian basis functions
     5 alpha electrons        5 beta electrons
       nuclear repulsion energy         6.6933017263 Hartrees.
 NAtoms=    2 NActive=    2 NUniq=    2 SFac= 1.00D+00 NAtFMM=   60 NAOKFM=F Big=F
 Integral buffers will be    131072 words long.
 Raffenetti 2 integral format.
 Two-electron integral symmetry is turned off.
 One-electron integrals computed using PRISM.
 NBasis=    17 RedAO= T EigKep=  9.30D-03  NBF=    17
 NBsUse=    17 1.00D-06 EigRej= -1.00D+00 NBFU=    17
 Keep R1 ints in memory in canonical form, NReq=6914438.
 Requested convergence on RMS density matrix=1.00D-08 within 128 cycles.
 Requested convergence on MAX density matrix=1.00D-06.
 Requested convergence on             energy=1.00D-06.
 No special actions if energy rises.
 SCF Done:  E(RB3LYP) =  -100.323284221     A.U. after    1 cycles
            NFock=  1  Conv=0.20D+01     -V/T= 1.9980
 Calling FoFJK, ICntrl=      2127 FMM=F ISym2X=0 I1Cent= 0 IOpClX= 0 NMat=1 NMatS=1 NMatT=0.
 -------------------------------------------------------------------
 Center     Atomic                   Forces (Hartrees/Bohr)
 Number     Number              X              Y              Z
 -------------------------------------------------------------------
      1        9           0.527013654   -0.000000000    0.000000000
      2        1          -0.527013654    0.000000000   -0.000000000
 -------------------------------------------------------------------
 Cartesian Forces:  Max     0.527013654 RMS     0.304271475
 TRJ-TRJ-TRJ-TRJ-TRJ-TRJ-TRJ-TRJ-TRJ-TRJ-TRJ-TRJ-TRJ-TRJ-TRJ-TRJ-TRJ-TRJ

 ADMP step     16
 Frobenius norm of [F,P] =     7.322425D-02
 Current gradient on entry to l121
 I=    1 X=  -5.270136537116D-01 Y=   0.000000000000D+00 Z=   0.000000000000D+00
 I=    2 X=   5.270136537116D-01 Y=   0.000000000000D+00 Z=   0.000000000000D+00

 Summary information for step     16
 Time (fs)     1.600000
 EKinC      =      0.0001675; EKinPA =      0.0023810; EKinPB =      0.0023810
 EKin       =      0.0049296; EPot   =   -100.3232842; ETot   =   -100.3183546
 ETot-EKinP =   -100.3231167
 Adiabaticity Index =   -1.1802D-03
 Integrand for the Velocity-Velocity Auto-Correlation  Function =   7.674835369112D-03
 Angular momentum
   JX =  0.1966304812D-62  JY = -0.6771164263D-30  JZ =  0.4390966185D-30
 Jtot =  0.8070269482D-30 H-BAR;  J (Quantum Number) =  0.0000000000D+00
 Total energy  -1.003183546D+02  Delta-E  -2.263078D-05 A.U.
 Total angular momentum   8.070269D-31  Delta-A   2.004586D-31 h-bar
 Tr(PA)-NA =  8.882D-16
 Tr(PA**2-PA) = -9.521D-13
 Tr[(PA**2-PA)**2] =  3.835D-14
 Cartesian coordinates:
 I=    1 X=   6.773638723135D-02 Y=   0.000000000000D+00 Z=   0.000000000000D+00
 I=    2 X=  -1.276891476273D+00 Y=   0.000000000000D+00 Z=   0.000000000000D+00
 MW Cartesian velocity:
 I=    1 X=  -3.977948748253D+12 Y=   0.000000000000D+00 Z=   0.000000000000D+00
 I=    2 X=   1.727130535710D+13 Y=   0.000000000000D+00 Z=   0.000000000000D+00
 TRJ-TRJ-TRJ-TRJ-TRJ-TRJ-TRJ-TRJ-TRJ-TRJ-TRJ-TRJ-TRJ-TRJ-TRJ-TRJ-TRJ-TRJ
                          Input orientation:                          
 ---------------------------------------------------------------------
 Center     Atomic      Atomic             Coordinates (Angstroms)
 Number     Number       Type             X           Y           Z
 ---------------------------------------------------------------------
      1          9           0        0.035865    0.000000    0.000000
      2          1           0       -0.676089   -0.000000   -0.000000
 ---------------------------------------------------------------------
 Symmetry turned off by external request.
 Stoichiometry    FH
 Framework group  C*V[C*(HF)]
 Deg. of freedom     1
 Full point group                 C*V     NOp   4
 Rotational constants (GHZ):           0.0000000        1041.7813658        1041.7813658
 Standard basis: 6-31G(d) (6D, 7F)
    17 basis functions,    32 primitive gaussians,    17 cartesian basis functions
     5 alpha electrons        5 beta electrons
       nuclear repulsion energy         6.6894721094 Hartrees.
 NAtoms=    2 NActive=    2 NUniq=    2 SFac= 1.00D+00 NAtFMM=   60 NAOKFM=F Big=F
 Integral buffers will be    131072 words long.
 Raffenetti 2 integral format.
 Two-electron integral symmetry is turned off.
 One-electron integrals computed using PRISM.
 NBasis=    17 RedAO= T EigKep=  9.31D-03  NBF=    17
 NBsUse=    17 1.00D-06 EigRej= -1.00D+00 NBFU=    17
 Keep R1 ints in memory in canonical form, NReq=6914438.
 Requested convergence on RMS density matrix=1.00D-08 within 128 cycles.
 Requested convergence on MAX density matrix=1.00D-06.
 Requested convergence on             energy=1.00D-06.
 No special actions if energy rises.
 SCF Done:  E(RB3LYP) =  -100.322170478     A.U. after    1 cycles
            NFock=  1  Conv=0.20D+01     -V/T= 1.9975
 Calling FoFJK, ICntrl=      2127 FMM=F ISym2X=0 I1Cent= 0 IOpClX= 0 NMat=1 NMatS=1 NMatT=0.
 -------------------------------------------------------------------
 Center     Atomic                   Forces (Hartrees/Bohr)
 Number     Number              X              Y              Z
 -------------------------------------------------------------------
      1        9           0.508628975   -0.000000000    0.000000000
      2        1          -0.508628975    0.000000000   -0.000000000
 -------------------------------------------------------------------
 Cartesian Forces:  Max     0.508628975 RMS     0.293657075
 TRJ-TRJ-TRJ-TRJ-TRJ-TRJ-TRJ-TRJ-TRJ-TRJ-TRJ-TRJ-TRJ-TRJ-TRJ-TRJ-TRJ-TRJ

 ADMP step     17
 Frobenius norm of [F,P] =     8.505279D-02
 Current gradient on entry to l121
 I=    1 X=  -5.086289747200D-01 Y=   0.000000000000D+00 Z=   0.000000000000D+00
 I=    2 X=   5.086289747200D-01 Y=   0.000000000000D+00 Z=   0.000000000000D+00

 Summary information for step     17
 Time (fs)     1.700000
[...]
     5 alpha electrons        5 beta electrons
       nuclear repulsion energy         3.7085026711 Hartrees.
 NAtoms=    2 NActive=    2 NUniq=    2 SFac= 1.00D+00 NAtFMM=   60 NAOKFM=F Big=F
 Integral buffers will be    131072 words long.
 Raffenetti 2 integral format.
 Two-electron integral symmetry is turned off.
 One-electron integrals computed using PRISM.
 NBasis=    17 RedAO= T EigKep=  1.64D-02  NBF=    17
 NBsUse=    17 1.00D-06 EigRej= -1.00D+00 NBFU=    17
 Keep R1 ints in memory in canonical form, NReq=6914438.
 Requested convergence on RMS density matrix=1.00D-08 within 128 cycles.
 Requested convergence on MAX density matrix=1.00D-06.
 Requested convergence on             energy=1.00D-06.
 No special actions if energy rises.
 SCF Done:  E(RB3LYP) =  -100.356333398     A.U. after    1 cycles
            NFock=  1  Conv=0.20D+01     -V/T= 2.0093
 Calling FoFJK, ICntrl=      2127 FMM=F ISym2X=0 I1Cent= 0 IOpClX= 0 NMat=1 NMatS=1 NMatT=0.
 -------------------------------------------------------------------
 Center     Atomic                   Forces (Hartrees/Bohr)
 Number     Number              X              Y              Z
 -------------------------------------------------------------------
      1        9          -0.145247334   -0.000000000   -0.000000000
      2        1           0.145247334    0.000000000    0.000000000
 -------------------------------------------------------------------
 Cartesian Forces:  Max     0.145247334 RMS     0.083858587
 TRJ-TRJ-TRJ-TRJ-TRJ-TRJ-TRJ-TRJ-TRJ-TRJ-TRJ-TRJ-TRJ-TRJ-TRJ-TRJ-TRJ-TRJ

 ADMP step     50
 Frobenius norm of [F,P] =     5.537623D-02
 Current gradient on entry to l121
 I=    1 X=   1.452473337016D-01 Y=   0.000000000000D+00 Z=   0.000000000000D+00
 I=    2 X=  -1.452473337016D-01 Y=   0.000000000000D+00 Z=   0.000000000000D+00

 Summary information for step     50
 Time (fs)     5.000000
 EKinC      =      0.0338550; EKinPA =      0.0020179; EKinPB =      0.0020179
 EKin       =      0.0378907; EPot   =   -100.3563334; ETot   =   -100.3184427
 ETot-EKinP =   -100.3224784
 Adiabaticity Index =    3.2892D-03
 Integrand for the Velocity-Velocity Auto-Correlation  Function =  -1.091065616756D-01
 Angular momentum
   JX =  0.1169385107D-61  JY = -0.1306051718D-29  JZ =  0.2103586439D-30
 Jtot =  0.1322883913D-29 H-BAR;  J (Quantum Number) =  0.0000000000D+00
 Total energy  -1.003184427D+02  Delta-E  -1.473658D-05 A.U.
 Total angular momentum   1.322884D-30  Delta-A  -1.119218D-31 h-bar
 Tr(PA)-NA =  0.000D+00
 Tr(PA**2-PA) =  1.782D-12
 Tr[(PA**2-PA)**2] =  5.737D-14
 Cartesian coordinates:
 I=    1 X=   1.222542135714D-01 Y=   0.000000000000D+00 Z=   0.000000000000D+00
 I=    2 X=  -2.304601258324D+00 Y=   0.000000000000D+00 Z=   0.000000000000D+00
 MW Cartesian velocity:
 I=    1 X=   5.655109061888D+13 Y=   0.000000000000D+00 Z=   0.000000000000D+00
 I=    2 X=  -2.455313570303D+14 Y=   0.000000000000D+00 Z=   0.000000000000D+00


 Final analysis for traj   1
 Traj calculation does not meet the product criterion.


 Analysis of fragment    1

 Instantaneous rotational analysis:
 Q(CM): X=  0.565975817530D-17 Y=  0.243955439073D-48 Z=  0.178623573911D-48
 V(CM): X= -0.645512105517D-02 Y= -0.358243004537D-17 Z= -0.567541743847D-18
 Angular momentum in principle axes
   JX = -0.1224733333D-29  JY =  0.5000501092D-30  JZ = -0.6730160440D-77
 Jtot =  0.1322883913D-29  H-BAR;  J (Quantum Number) =  0.0000000000D+00
 Angular momentum in original axes
   JX =  0.1169385107D-61  JY = -0.1306051718D-29  JZ =  0.2103586439D-30
 Jtot =  0.1322883913D-29  H-BAR;  J (Quantum Number) =  0.0000000000D+00

 Etrn =  0.4108287083D-33 Erot =  0.8515860178D-64 Evib(kin) =  0.3385496382D-01 au
 Epot = -0.1003184427D+03 Etot = -0.1002845878D+03 au
 No diatomic information available for this fragment.

 Trajectory summary for trajectory      1
 Energy/Fock evaluations               51
 Gradient evaluations                  51

 Trajectory summary
   Time (fs)   Kinetic (au)   Potent (au)   Delta E (au)     Delta A (h-bar)
     0.000000     0.1000000  -100.4185571     0.0000000     0.0000000000000000
     0.100000     0.1007347  -100.4192841     0.0000077     0.0000000000000000
     0.200000     0.0998118  -100.4183115     0.0000573     0.0000000000000000
     0.300000     0.0979708  -100.4164474     0.0000805     0.0000000000000000
     0.400000     0.0955868  -100.4141051     0.0000387     0.0000000000000000
     0.500000     0.0921702  -100.4107550    -0.0000277     0.0000000000000000
     0.600000     0.0869299  -100.4055316    -0.0000446     0.0000000000000000
     0.700000     0.0797670  -100.3983181     0.0000059     0.0000000000000000
     0.800000     0.0714922  -100.3899877     0.0000616     0.0000000000000000
     0.900000     0.0629656  -100.3814673     0.0000553     0.0000000000000000
     1.000000     0.0541964  -100.3727517     0.0000018     0.0000000000000000
     1.100000     0.0445549  -100.3631265    -0.0000145     0.0000000000000000
     1.200000     0.0339179  -100.3524161     0.0000589     0.0000000000000000
     1.300000     0.0233689  -100.3417526     0.0001734     0.0000000000000000
     1.400000     0.0145475  -100.3328680     0.0002366     0.0000000000000000
     1.500000     0.0084173  -100.3267493     0.0002251     0.0000000000000000
     1.600000     0.0049296  -100.3232842     0.0002024     0.0000000000000000
     1.700000     0.0038379  -100.3221705     0.0002245     0.0000000000000000
     1.800000     0.0054351  -100.3237267     0.0002655     0.0000000000000000
     1.900000     0.0102381  -100.3285342     0.0002610     0.0000000000000000
     2.000000     0.0181380  -100.3364998     0.0001953     0.0000000000000000
     2.100000     0.0281755  -100.3466145     0.0001181     0.0000000000000000
     2.200000     0.0391876  -100.3576659     0.0000787     0.0000000000000000
     2.300000     0.0504769  -100.3689643     0.0000697     0.0000000000000000
     2.400000     0.0617443  -100.3802550     0.0000464     0.0000000000000000
     2.500000     0.0725126  -100.3910820    -0.0000122     0.0000000000000000
     2.600000     0.0818535  -100.4004876    -0.0000770     0.0000000000000000
     2.700000     0.0887901  -100.4074469    -0.0000997     0.0000000000000000
     2.800000     0.0929639  -100.4115823    -0.0000614     0.0000000000000000
     2.900000     0.0948978  -100.4134443     0.0000106     0.0000000000000000
     3.000000     0.0955954  -100.4140865     0.0000660     0.0000000000000000
     3.100000     0.0958209  -100.4143023     0.0000757     0.0000000000000000
     3.200000     0.0956842  -100.4141852     0.0000561     0.0000000000000000
     3.300000     0.0948671  -100.4133755     0.0000487     0.0000000000000000
     3.400000     0.0932071  -100.4116897     0.0000745     0.0000000000000000
     3.500000     0.0910015  -100.4094470     0.0001116     0.0000000000000000
     3.600000     0.0887197  -100.4071548     0.0001220     0.0000000000000000
     3.700000     0.0864812  -100.4049413     0.0000969     0.0000000000000000
     3.800000     0.0839305  -100.4024182     0.0000693     0.0000000000000000
     3.900000     0.0806763  -100.3991571     0.0000762     0.0000000000000000
     4.000000     0.0767901  -100.3952327     0.0001144     0.0000000000000000
     4.100000     0.0727642  -100.3911786     0.0001426     0.0000000000000000
     4.200000     0.0689571  -100.3873844     0.0001298     0.0000000000000000
     4.300000     0.0651807  -100.3836442     0.0000936     0.0000000000000000
     4.400000     0.0609418  -100.3794171     0.0000817     0.0000000000000000
     4.500000     0.0560866  -100.3745265     0.0001171     0.0000000000000000
     4.600000     0.0511097  -100.3694958     0.0001710     0.0000000000000000
     4.700000     0.0467599  -100.3651228     0.0001942     0.0000000000000000
     4.800000     0.0433652  -100.3617523     0.0001699     0.0000000000000000
     4.900000     0.0405971  -100.3590251     0.0001291     0.0000000000000000
     5.000000     0.0378907  -100.3563334     0.0001143     0.0000000000000000
                             Max Error =      0.0002655     0.0000000000000000

 Density conservation (alpha)
    Time (fs)      Electron #     Av. Idempot     RMS Idempot
     0.000000  0.000000000000  0.000000000000  0.000000000000
     0.100000  0.000000000000  0.000000000000  0.000000000000
     0.200000  0.000000000000  0.000000000006  0.000000000000
     0.300000 -0.000000000000  0.000000000020  0.000000000001
     0.400000  0.000000000000 -0.000000000000  0.000000000000
     0.500000  0.000000000000  0.000000000000  0.000000000000
     0.600000 -0.000000000000  0.000000000000  0.000000000000
     0.700000 -0.000000000000 -0.000000000001  0.000000000000
     0.800000  0.000000000000 -0.000000000003  0.000000000000
     0.900000  0.000000000000 -0.000000000005  0.000000000000
     1.000000  0.000000000000 -0.000000000006  0.000000000000
     1.100000  0.000000000000 -0.000000000005  0.000000000000
     1.200000  0.000000000000 -0.000000000004  0.000000000000
     1.300000 -0.000000000000 -0.000000000002  0.000000000000
     1.400000  0.000000000000 -0.000000000002  0.000000000000
     1.500000  0.000000000000 -0.000000000002  0.000000000000
     1.600000  0.000000000000 -0.000000000001  0.000000000000
     1.700000 -0.000000000000 -0.000000000000  0.000000000000
     1.800000  0.000000000000 -0.000000000000  0.000000000000
     1.900000  0.000000000000 -0.000000000001  0.000000000000
     2.000000  0.000000000000 -0.000000000002  0.000000000000
     2.100000  0.000000000000 -0.000000000003  0.000000000000
     2.200000  0.000000000000 -0.000000000004  0.000000000000
     2.300000  0.000000000000 -0.000000000006  0.000000000000
     2.400000  0.000000000000 -0.000000000006  0.000000000000
     2.500000  0.000000000000 -0.000000000005  0.000000000000
     2.600000 -0.000000000000 -0.000000000003  0.000000000000
     2.700000  0.000000000000 -0.000000000001  0.000000000000
     2.800000 -0.000000000000  0.000000000001  0.000000000000
     2.900000  0.000000000000  0.000000000001  0.000000000000
     3.000000  0.000000000000  0.000000000002  0.000000000000
     3.100000 -0.000000000000  0.000000000002  0.000000000000
     3.200000  0.000000000000  0.000000000002  0.000000000000
     3.300000 -0.000000000000  0.000000000002  0.000000000000
     3.400000  0.000000000000  0.000000000002  0.000000000000
     3.500000  0.000000000000  0.000000000001  0.000000000000
     3.600000 -0.000000000000  0.000000000001  0.000000000000
     3.700000  0.000000000000  0.000000000000  0.000000000000
     3.800000  0.000000000000 -0.000000000001  0.000000000000
     3.900000  0.000000000000 -0.000000000003  0.000000000000
     4.000000  0.000000000000 -0.000000000005  0.000000000000
     4.100000  0.000000000000 -0.000000000006  0.000000000000
     4.200000 -0.000000000000 -0.000000000005  0.000000000000
     4.300000 -0.000000000000 -0.000000000003  0.000000000000
     4.400000  0.000000000000 -0.000000000002  0.000000000000
     4.500000  0.000000000000 -0.000000000000  0.000000000000
     4.600000  0.000000000000  0.000000000001  0.000000000000
     4.700000  0.000000000000  0.000000000001  0.000000000000
     4.800000 -0.000000000000  0.000000000002  0.000000000000
     4.900000  0.000000000000  0.000000000002  0.000000000000
     5.000000  0.000000000000  0.000000000002  0.000000000000
 Max Error =   0.000000000000  0.000000000020  0.000000000001

 Bond Length (in Angs) of Fragment Number  1
 Atom F  and Atom H 
        0.0000000000        0.9755320000
        0.1000000000        0.9520074732
        0.2000000000        0.9285207082
        0.3000000000        0.9053122747
        0.4000000000        0.8825940385
        0.5000000000        0.8605337098
        0.6000000000        0.8392609541
        0.7000000000        0.8188927652
        0.8000000000        0.7995670552
        0.9000000000        0.7814701045
        1.0000000000        0.7648467264
        1.1000000000        0.7499892734
        1.2000000000        0.7372082383
        1.3000000000        0.7267920189
        1.4000000000        0.7189671377
        1.5000000000        0.7138711677
        1.6000000000        0.7115464225
        1.7000000000        0.7119537716
        1.8000000000        0.7149979068
        1.9000000000        0.7205533632
        2.0000000000        0.7284840742
        2.1000000000        0.7386531439
        2.2000000000        0.7509215117
        2.3000000000        0.7651366614
        2.4000000000        0.7811169958
        2.5000000000        0.7986410143
        2.6000000000        0.8174491889
        2.7000000000        0.8372604513
        2.8000000000        0.8577981924
        2.9000000000        0.8788172205
        3.0000000000        0.9001242176
        3.1000000000        0.9215869997
        3.2000000000        0.9431308614
        3.3000000000        0.9647232272
        3.4000000000        0.9863504608
        3.5000000000        1.0079930170
        3.6000000000        1.0296061602
        3.7000000000        1.0511119164
        3.8000000000        1.0724038495
        3.9000000000        1.0933615637
        4.0000000000        1.1138689521
        4.1000000000        1.1338300068
        4.2000000000        1.1531779365
        4.3000000000        1.1718762729
        4.4000000000        1.1899131977
        4.5000000000        1.2072916677
        4.6000000000        1.2240182537
        4.7000000000        1.2400934644
        4.8000000000        1.2555058382
        4.9000000000        1.2702311321
        5.0000000000        1.2842366099

 Relative MW speed (sqrt(amu)*bohr/fs) of Fragment Number  1
 Atom F  and Atom H 
        0.0000000000        0.5191756491
        0.1000000000        0.5209955774
        0.2000000000        0.5174925216
        0.3000000000        0.5089754166
        0.4000000000        0.4962517162
        0.5000000000        0.4802323960
        0.6000000000        0.4614795118
        0.7000000000        0.4399016705
        0.8000000000        0.4147310146
        0.9000000000        0.3847828268
        1.0000000000        0.3488815804
        1.1000000000        0.3062993920
        1.2000000000        0.2570800873
        1.3000000000        0.2021542567
        1.4000000000        0.1431933923
        1.5000000000        0.0822389606
        1.6000000000        0.0212492541
        1.7000000000        0.0382505554
        1.8000000000        0.0953036818
        1.9000000000        0.1494584241
        2.0000000000        0.2005880995
        2.1000000000        0.2486595301
        2.2000000000        0.2934996034
        2.3000000000        0.3346369152
        2.4000000000        0.3713069576
        2.5000000000        0.4026460709
        2.6000000000        0.4279941072
        2.7000000000        0.4471617688
        2.8000000000        0.4605466508
        2.9000000000        0.4690718145
        3.0000000000        0.4739896512
        3.1000000000        0.4766146674
        3.2000000000        0.4780507601
        3.3000000000        0.4789747164
        3.4000000000        0.4795309434
        3.5000000000        0.4793747888
        3.6000000000        0.4778587237
        3.7000000000        0.4742989617
        3.8000000000        0.4682253677
        3.9000000000        0.4595307689
        4.0000000000        0.4484854398
        4.1000000000        0.4356359137
        4.2000000000        0.4216420279
        4.3000000000        0.4071130115
        4.4000000000        0.3924857914
        4.5000000000        0.3779641593
        4.6000000000        0.3635209828
        4.7000000000        0.3489564233
        4.8000000000        0.3339961740
        4.9000000000        0.3184044611
        5.0000000000        0.3020824476
 TRJ-TRJ-TRJ-TRJ-TRJ-TRJ-TRJ-TRJ-TRJ-TRJ-TRJ-TRJ-TRJ-TRJ-TRJ-TRJ-TRJ-TRJ
                          Input orientation:                          
 ---------------------------------------------------------------------
 Center     Atomic      Atomic             Coordinates (Angstroms)
 Number     Number       Type             X           Y           Z
 ---------------------------------------------------------------------
      1          9           0        0.064694    0.000000    0.000000
      2          1           0       -1.219542   -0.000000   -0.000000
 ---------------------------------------------------------------------
 Symmetry turned off by external request.
 Stoichiometry    FH
 Framework group  C*V[C*(HF)]
 Deg. of freedom     1
 Full point group                 C*V     NOp   4
 Rotational constants (GHZ):           0.0000000         320.1769643         320.1769643

 **********************************************************************

            Population analysis using the SCF Density.

 **********************************************************************

 Alpha  occ. eigenvalues --  -24.66487  -1.15510  -0.51017  -0.37276  -0.37276
 Alpha virt. eigenvalues --    0.04678   0.76984   1.08865   1.18088   1.18088
 Alpha virt. eigenvalues --    1.44151   1.80929   1.80929   1.87373   1.87373
 Alpha virt. eigenvalues --    2.52749   3.64842
          Condensed to atoms (all electrons):
               1          2
     1  F    9.316217   0.157811
     2  H    0.157811   0.368162
 Mulliken charges:
               1
     1  F   -0.474028
     2  H    0.474028
 Sum of Mulliken charges =  -0.00000
 Mulliken charges with hydrogens summed into heavy atoms:
               1
     1  F   -0.000000
 Electronic spatial extent (au):  <R**2>=             15.0861
 Charge=              0.0000 electrons
 Dipole moment (field-independent basis, Debye):
    X=             -2.6545    Y=             -0.0000    Z=             -0.0000  Tot=              2.6545
 Quadrupole moment (field-independent basis, Debye-Ang):
   XX=             -1.6482   YY=             -5.6592   ZZ=             -5.6592
   XY=              0.0000   XZ=              0.0000   YZ=             -0.0000
 Traceless Quadrupole moment (field-independent basis, Debye-Ang):
   XX=              2.6740   YY=             -1.3370   ZZ=             -1.3370
   XY=              0.0000   XZ=              0.0000   YZ=             -0.0000
 Octapole moment (field-independent basis, Debye-Ang**2):
  XXX=             -3.5795  YYY=             -0.0000  ZZZ=             -0.0000  XYY=              0.3412
  XXY=             -0.0000  XXZ=             -0.0000  XZZ=              0.3412  YZZ=             -0.0000
  YYZ=              0.0000  XYZ=              0.0000
 Hexadecapole moment (field-independent basis, Debye-Ang**3):
 XXXX=             -1.1242 YYYY=             -3.2202 ZZZZ=             -3.2202 XXXY=              0.0000
 XXXZ=              0.0000 YYYX=              0.0000 YYYZ=             -0.0000 ZZZX=              0.0000
 ZZZY=             -0.0000 XXYY=             -1.7424 XXZZ=             -1.7424 YYZZ=             -1.0734
 XXYZ=             -0.0000 YYXZ=              0.0000 ZZXY=              0.0000
 N-N= 3.708502671142D+00 E-N=-2.476231589160D+02  KE= 9.942760388250D+01
 Unable to Open any file for archive entry.
 1\1\GINC-SPARTAN-BM197\ADMP\RB3LYP\6-31G(d)\F1H1\AKHALILOV\19-Mar-2025
 \0\\# B3LYP/6-31G(d) ADMP int=ultrafine\\HF ADMP thermal decomposition
  simulation targeting 600K\\0,1\F,0.0646941438,0.,0.\H,-1.2195424662,0
 .,0.\\Version=ES64L-G16RevC.01\HF=-100.3563334\RMSD=2.000e+00\RMSF=8.3
 86e-02\Dipole=-1.0443412,0.,0.\Quadrupole=1.9880724,-0.9940362,-0.9940
 362,0.,0.,0.\PG=C*V [C*(H1F1)]\\@
 The archive entry for this job was punched.


 IF AT FIRST YOU DON'T SUCCEED, TRY, TRY AGAIN.
 THEN GIVE UP;
 THERE'S NO USE BEING A DAMN FOOL ABOUT IT.

                                 -- W. C. FIELDS
 Job cpu time:       0 days  0 hours  2 minutes 37.2 seconds.
 Elapsed time:       0 days  0 hours  0 minutes 51.2 seconds.
 File lengths (MBytes):  RWF=      6 Int=      0 D2E=      0 Chk=      1 Scr=      1
 Normal termination of Gaussian 16 at Wed Mar 19 15:08:15 2025.
