 Entering Gaussian System, Link 0=g16
 Input=TS3M_Product1_ADMP_600K.gjf
 Output=TS3M_Product1_ADMP_600K.log
 Initial command:
 /apps/easybuild-2022/easybuild/software/Compiler/NVHPC/22.11-CUDA-11.7.0/Gaussian/g16c01-CUDA-11.7.0/g16/l1.exe "/tmp/Gau-159841.inp" -scrdir="/tmp/"
 Default is to use a total of   4 processors:
                                4 via shared-memory
                                1 via Linda
 Entering Link 1 = /apps/easybuild-2022/easybuild/software/Compiler/NVHPC/22.11-CUDA-11.7.0/Gaussian/g16c01-CUDA-11.7.0/g16/l1.exe PID=    159842.
  
 Copyright (c) 1988-2019, Gaussian, Inc.  All Rights Reserved.
  
 This is part of the Gaussian(R) 16 program.  It is based on
 the Gaussian(R) 09 system (copyright 2009, Gaussian, Inc.),
 the Gaussian(R) 03 system (copyright 2003, Gaussian, Inc.),
 the Gaussian(R) 98 system (copyright 1998, Gaussian, Inc.),
 the Gaussian(R) 94 system (copyright 1995, Gaussian, Inc.),
 the Gaussian 92(TM) system (copyright 1992, Gaussian, Inc.),
 the Gaussian 90(TM) system (copyright 1990, Gaussian, Inc.),
 the Gaussian 88(TM) system (copyright 1988, Gaussian, Inc.),
 the Gaussian 86(TM) system (copyright 1986, Carnegie Mellon
 University), and the Gaussian 82(TM) system (copyright 1983,
 Carnegie Mellon University). Gaussian is a federally registered
 trademark of Gaussian, Inc.
  
 This software contains proprietary and confidential information,
 including trade secrets, belonging to Gaussian, Inc.
  
 This software is provided under written license and may be
 used, copied, transmitted, or stored only in accord with that
 written license.
  
 The following legend is applicable only to US Government
 contracts under FAR:
  
                    RESTRICTED RIGHTS LEGEND
  
 Use, reproduction and disclosure by the US Government is
 subject to restrictions as set forth in subparagraphs (a)
 and (c) of the Commercial Computer Software - Restricted
 Rights clause in FAR 52.227-19.
  
 Gaussian, Inc.
 340 Quinnipiac St., Bldg. 40, Wallingford CT 06492
  
  
 ---------------------------------------------------------------
 Warning -- This program may not be used in any manner that
 competes with the business of Gaussian, Inc. or will provide
 assistance to any competitor of Gaussian, Inc.  The licensee
 of this program is prohibited from giving any competitor of
 Gaussian, Inc. access to this program.  By using this program,
 the user acknowledges that Gaussian, Inc. is engaged in the
 business of creating and licensing software in the field of
 computational chemistry and represents and warrants to the
 licensee that it is not a competitor of Gaussian, Inc. and that
 it will not use this program in any manner prohibited above.
 ---------------------------------------------------------------
  

 Cite this work as:
 Gaussian 16, Revision C.01,
 M. J. Frisch, G. W. Trucks, H. B. Schlegel, G. E. Scuseria, 
 M. A. Robb, J. R. Cheeseman, G. Scalmani, V. Barone, 
 G. A. Petersson, H. Nakatsuji, X. Li, M. Caricato, A. V. Marenich, 
 J. Bloino, B. G. Janesko, R. Gomperts, B. Mennucci, H. P. Hratchian, 
 J. V. Ortiz, A. F. Izmaylov, J. L. Sonnenberg, D. Williams-Young, 
 F. Ding, F. Lipparini, F. Egidi, J. Goings, B. Peng, A. Petrone, 
 T. Henderson, D. Ranasinghe, V. G. Zakrzewski, J. Gao, N. Rega, 
 G. Zheng, W. Liang, M. Hada, M. Ehara, K. Toyota, R. Fukuda, 
 J. Hasegawa, M. Ishida, T. Nakajima, Y. Honda, O. Kitao, H. Nakai, 
 T. Vreven, K. Throssell, J. A. Montgomery, Jr., J. E. Peralta, 
 F. Ogliaro, M. J. Bearpark, J. J. Heyd, E. N. Brothers, K. N. Kudin, 
 V. N. Staroverov, T. A. Keith, R. Kobayashi, J. Normand, 
 K. Raghavachari, A. P. Rendell, J. C. Burant, S. S. Iyengar, 
 J. Tomasi, M. Cossi, J. M. Millam, M. Klene, C. Adamo, R. Cammi, 
 J. W. Ochterski, R. L. Martin, K. Morokuma, O. Farkas, 
 J. B. Foresman, and D. J. Fox, Gaussian, Inc., Wallingford CT, 2019.
 
 ******************************************
 Gaussian 16:  ES64L-G16RevC.01  3-Jul-2019
                19-Mar-2025 
 ******************************************
 %mem=8GB
 %nprocshared=8
 Will use up to    8 processors via shared memory.
 -----------------------------------
 # B3LYP/6-31G(d) ADMP int=ultrafine
 -----------------------------------
 1/26=4,29=20000,38=1,172=1/1,21;
 2/12=2,17=6,18=5,29=2,40=1/2;
 3/5=1,6=6,7=1,11=2,25=1,30=1,65=-1,71=1,74=-5,75=-5,89=400,90=600/1,2,3;
 4//1;
 5/5=2,14=200,38=5/2;
 6/7=2,8=2,9=2,10=2,28=1/1;
 7/7=1,127=-100/1,2,3,16;
 1/26=4/21(2);
 2/29=1/2;
 99/12=1/99;
 2/29=1/2;
 3/5=1,6=6,7=1,11=2,25=1,30=1,65=-1,71=1,74=-5,75=-5,89=400,90=600/1,2,3;
 5/5=2,14=100/2;
 7/7=1,127=-100/1,2,3,16;
 1/26=4/21(-4);
 2/29=1/2;
 6/7=2,8=2,9=2,10=2,19=2,28=1/1;
 99/9=1,12=1/99;
 ------------------------------------------------------------------
 TS3M_Product1 ADMP thermal decomposition simulation targeting 600K
 ------------------------------------------------------------------
 Symbolic Z-matrix:
 Charge =  0 Multiplicity = 2
 O                    -1.22586  -0.88089  -0.49042 
 S                    -0.54662   0.03716   0.49238 
 O                     1.03733  -0.40429   0.42141 
 O                    -0.53894   1.48999   0.09325 
 H                     1.27409  -0.24196  -0.51661 
 
 TRJ-TRJ-TRJ-TRJ-TRJ-TRJ-TRJ-TRJ-TRJ-TRJ-TRJ-TRJ-TRJ-TRJ-TRJ-TRJ-TRJ-TRJ
 ------------------------------------------------------------------------
 INPUT DATA FOR L121
 ------------------------------------------------------------------------

 General parameters:
 Maximum Steps                =      50
 Random Number Generator Seed =    398465
 Time Step                    =  0.10000 femtosec
 Ficticious electronic mass   =  0.10000 amu
 MW individual basis funct.   = True 
 Initial nuclear kin. energy  =  0.10000 hartree
 Initial electr. kin. energy  =  0.00000 hartree
   Initial electr. KE scheme  =  0
 Multitime step - NDtrC       =       1
 Multitime step - NDtrP       =       1
 No Thermostats chosen to control nuclear temperature

 Integration parameters:

 Follow Rxn Path (DVV)        = False
 Constraint Scheme            =      10
 Projection of angular mom.   = True 
 Rotate density with nuclei   = True 
 ------------------------------------------------------------------------
 TRJ-TRJ-TRJ-TRJ-TRJ-TRJ-TRJ-TRJ-TRJ-TRJ-TRJ-TRJ-TRJ-TRJ-TRJ-TRJ-TRJ-TRJ
 ---------------------------------------------------------------------------------------------------
                            Z-MATRIX (ANGSTROMS AND DEGREES)
   CD    Cent   Atom    N1       Length/X        N2       Alpha/Y        N3        Beta/Z          J
 ---------------------------------------------------------------------------------------------------
      1      1  O        0  -1.225862         -0.880888         -0.490424
      2      2  S        0  -0.546617          0.037158          0.492380
      3      3  O        0   1.037334         -0.404294          0.421412
      4      4  O        0  -0.538941          1.489989          0.093245
      5      5  H        0   1.274086         -0.241964         -0.516613
 ---------------------------------------------------------------------------------------------------
                         Z-Matrix orientation:                         
 ---------------------------------------------------------------------
 Center     Atomic      Atomic             Coordinates (Angstroms)
 Number     Number       Type             X           Y           Z
 ---------------------------------------------------------------------
      1          8           0       -1.225862   -0.880888   -0.490424
      2         16           0       -0.546617    0.037158    0.492380
      3          8           0        1.037334   -0.404294    0.421412
      4          8           0       -0.538941    1.489989    0.093245
      5          1           0        1.274086   -0.241964   -0.516613
 ---------------------------------------------------------------------
                    Distance matrix (angstroms):
                    1          2          3          4          5
     1  O    0.000000
     2  S    1.506680   0.000000
     3  O    2.486090   1.645848   0.000000
     4  O    2.536452   1.506680   2.486090   0.000000
     5  H    2.580436   2.100223   0.980966   2.580437   0.000000
 Symmetry turned off by external request.
 Stoichiometry    HO3S(2)
 Framework group  C1[X(HO3S)]
 Deg. of freedom     9
 Full point group                 C1      NOp   1
 Rotational constants (GHZ):           8.6653741           8.6109522           4.9287915
 Standard basis: 6-31G(d) (6D, 7F)
    66 basis functions,   140 primitive gaussians,    66 cartesian basis functions
    21 alpha electrons       20 beta electrons
       nuclear repulsion energy       183.2931930551 Hartrees.
 NAtoms=    5 NActive=    5 NUniq=    5 SFac= 1.00D+00 NAtFMM=   60 NAOKFM=F Big=F
 Integral buffers will be    131072 words long.
 Raffenetti 2 integral format.
 Two-electron integral symmetry is turned off.
 One-electron integrals computed using PRISM.
 NBasis=    66 RedAO= T EigKep=  6.82D-03  NBF=    66
 NBsUse=    66 1.00D-06 EigRej= -1.00D+00 NBFU=    66
 ExpMin= 1.17D-01 ExpMax= 2.19D+04 ExpMxC= 3.30D+03 IAcc=3 IRadAn=         5 AccDes= 0.00D+00
 Harris functional with IExCor=  402 and IRadAn=       5 diagonalized for initial guess.
 HarFok:  IExCor=  402 AccDes= 0.00D+00 IRadAn=         5 IDoV= 1 UseB2=F ITyADJ=14
 ICtDFT=  3500011 ScaDFX=  1.000000  1.000000  1.000000  1.000000
 FoFCou: FMM=F IPFlag=           0 FMFlag=      100000 FMFlg1=           0
         NFxFlg=           0 DoJE=T BraDBF=F KetDBF=T FulRan=T
         wScrn=  0.000000 ICntrl=       500 IOpCl=  0 I1Cent=   200000004 NGrid=           0
         NMat0=    1 NMatS0=      1 NMatT0=    0 NMatD0=    1 NMtDS0=    0 NMtDT0=    0
 Symmetry not used in FoFCou.
 Initial guess <Sx>= 0.0000 <Sy>= 0.0000 <Sz>= 0.5000 <S**2>= 0.7500 S= 0.5000
 Keep R1 and R2 ints in memory in canonical form, NReq=12004998.
 Requested convergence on RMS density matrix=1.00D-08 within 128 cycles.
 Requested convergence on MAX density matrix=1.00D-06.
 Requested convergence on             energy=1.00D-06.
 No special actions if energy rises.
 Integral accuracy reduced to 1.0D-05 until final iterations.
 Initial convergence to 1.0D-05 achieved.  Increase integral accuracy.
 SCF Done:  E(UB3LYP) =  -624.342292935     A.U. after   18 cycles
            NFock= 18  Conv=0.87D-08     -V/T= 2.0054
 <Sx>= 0.0000 <Sy>= 0.0000 <Sz>= 0.5000 <S**2>= 0.7575 S= 0.5037
 <L.S>=  0.00000000000    
 Annihilation of the first spin contaminant:
 S**2 before annihilation     0.7575,   after     0.7500

 **********************************************************************

            Population analysis using the SCF Density.

 **********************************************************************

 Alpha  occ. eigenvalues --  -89.12511 -19.23276 -19.20682 -19.20682  -8.15813
 Alpha  occ. eigenvalues --   -6.12281  -6.12062  -6.11997  -1.16161  -1.06085
 Alpha  occ. eigenvalues --   -1.03716  -0.70142  -0.56435  -0.52269  -0.50475
 Alpha  occ. eigenvalues --   -0.45344  -0.40999  -0.37420  -0.36270  -0.32768
 Alpha  occ. eigenvalues --   -0.32320
 Alpha virt. eigenvalues --   -0.00434   0.05259   0.05333   0.08376   0.24506
 Alpha virt. eigenvalues --    0.31943   0.33484   0.35669   0.57248   0.59875
 Alpha virt. eigenvalues --    0.66865   0.74037   0.78382   0.82210   0.88136
 Alpha virt. eigenvalues --    0.88471   0.94397   0.98625   0.98662   0.99757
 Alpha virt. eigenvalues --    1.05943   1.11093   1.11975   1.21531   1.28732
 Alpha virt. eigenvalues --    1.52578   1.67731   1.72924   1.73512   1.75689
 Alpha virt. eigenvalues --    1.77068   1.78535   1.78535   1.84741   2.01437
 Alpha virt. eigenvalues --    2.05618   2.12062   2.26492   2.45607   2.64108
 Alpha virt. eigenvalues --    2.71146   3.55616   3.56732   3.76995   3.94109
  Beta  occ. eigenvalues --  -89.12342 -19.23038 -19.19792 -19.19792  -8.15622
  Beta  occ. eigenvalues --   -6.12183  -6.12009  -6.11493  -1.14996  -1.04877
  Beta  occ. eigenvalues --   -1.01480  -0.68043  -0.55286  -0.50473  -0.48656
  Beta  occ. eigenvalues --   -0.43823  -0.39510  -0.36414  -0.32626  -0.31952
  Beta virt. eigenvalues --   -0.20834   0.00978   0.05774   0.07395   0.09008
  Beta virt. eigenvalues --    0.25428   0.32081   0.34093   0.35992   0.58465
  Beta virt. eigenvalues --    0.60610   0.69463   0.74537   0.79360   0.83032
  Beta virt. eigenvalues --    0.88834   0.88999   0.95648   1.00002   1.00624
  Beta virt. eigenvalues --    1.00877   1.06523   1.11513   1.12693   1.22576
  Beta virt. eigenvalues --    1.29227   1.53309   1.68021   1.73725   1.74599
  Beta virt. eigenvalues --    1.77242   1.78909   1.79179   1.80194   1.86785
  Beta virt. eigenvalues --    2.02493   2.06672   2.13368   2.26826   2.46092
  Beta virt. eigenvalues --    2.65113   2.72220   3.55967   3.58125   3.78176
  Beta virt. eigenvalues --    3.94800
          Condensed to atoms (all electrons):
               1          2          3          4          5
     1  O    8.249395   0.281689  -0.041167  -0.043672   0.000250
     2  S    0.281689  14.249257   0.119413   0.281685   0.006229
     3  O   -0.041167   0.119413   8.347713  -0.041167   0.222680
     4  O   -0.043672   0.281685  -0.041167   8.249399   0.000251
     5  H    0.000250   0.006229   0.222680   0.000251   0.331849
          Atomic-Atomic Spin Densities.
               1          2          3          4          5
     1  O    0.389925  -0.072740   0.006555   0.008016   0.000918
     2  S   -0.072740   0.498783  -0.106679  -0.072740   0.015783
     3  O    0.006555  -0.106679   0.164577   0.006555  -0.017666
     4  O    0.008016  -0.072740   0.006555   0.389926   0.000918
     5  H    0.000918   0.015783  -0.017666   0.000918   0.018948
 Mulliken charges and spin densities:
               1          2
     1  O   -0.446497   0.332674
     2  S    1.061725   0.262407
     3  O   -0.607473   0.053342
     4  O   -0.446496   0.332676
     5  H    0.438741   0.018901
 Sum of Mulliken charges =  -0.00000   1.00000
 Mulliken charges and spin densities with hydrogens summed into heavy atoms:
               1          2
     1  O   -0.446497   0.332674
     2  S    1.061725   0.262407
     3  O   -0.168732   0.072243
     4  O   -0.446496   0.332676
 Electronic spatial extent (au):  <R**2>=            288.4306
 Charge=              0.0000 electrons
 Dipole moment (field-independent basis, Debye):
    X=              1.3169    Y=             -0.4212    Z=              0.1613  Tot=              1.3920
 Quadrupole moment (field-independent basis, Debye-Ang):
   XX=            -29.1225   YY=            -33.2986   ZZ=            -26.4093
   XY=             -0.2260   XZ=             -4.2243   YZ=             -0.5197
 Traceless Quadrupole moment (field-independent basis, Debye-Ang):
   XX=              0.4876   YY=             -3.6884   ZZ=              3.2008
   XY=             -0.2260   XZ=             -4.2243   YZ=             -0.5197
 Octapole moment (field-independent basis, Debye-Ang**2):
  XXX=             32.2970  YYY=             -7.8140  ZZZ=            -15.9451  XYY=             12.6051
  XXY=              0.3653  XXZ=             -6.7580  XZZ=              9.5981  YZZ=             -1.3193
  YYZ=             -5.8225  XYZ=              1.5692
 Hexadecapole moment (field-independent basis, Debye-Ang**3):
 XXXX=           -142.0639 YYYY=           -136.0671 ZZZZ=            -52.6027 XXXY=              0.5356
 XXXZ=            -12.8456 YYYX=              5.6034 YYYZ=             -9.3068 ZZZX=             -6.9268
 ZZZY=             -7.1170 XXYY=            -48.8124 XXZZ=            -32.3421 YYZZ=            -29.9919
 XXYZ=             -2.2803 YYXZ=             -2.7178 ZZXY=              1.0888
 N-N= 1.832931930551D+02 E-N=-1.844750215677D+03  KE= 6.209913141237D+02
                          Isotropic Fermi Contact Couplings
        Atom                 a.u.       MegaHertz       Gauss      10(-4) cm-1
     1  O(17)              0.01967     -11.92166      -4.25395      -3.97664
     2  S(33)              0.56344     193.52791      69.05557      64.55396
     3  O(17)              0.11163     -67.67256     -24.14725     -22.57314
     4  O(17)              0.01967     -11.92119      -4.25378      -3.97648
     5  H(1)               0.00440      19.66743       7.01783       6.56035
 --------------------------------------------------------
       Center         ----  Spin Dipole Couplings  ----
                      3XX-RR        3YY-RR        3ZZ-RR
 --------------------------------------------------------
     1   Atom       -0.569634     -0.677185      1.246819
     2   Atom       -0.563109     -0.566595      1.129705
     3   Atom        0.278849     -0.128308     -0.150541
     4   Atom       -0.494853     -0.584121      1.078974
     5   Atom        0.003585     -0.010579      0.006994
 --------------------------------------------------------
                        XY            XZ            YZ
 --------------------------------------------------------
     1   Atom        0.021885     -0.514130     -0.129330
     2   Atom        0.017638     -0.181889     -0.387104
     3   Atom       -0.117655     -0.038820      0.008866
     4   Atom        0.164419     -0.581137     -0.458774
     5   Atom       -0.003022     -0.006265     -0.002902
 --------------------------------------------------------


 ---------------------------------------------------------------------------------
              Anisotropic Spin Dipole Couplings in Principal Axis System
 ---------------------------------------------------------------------------------

       Atom             a.u.   MegaHertz   Gauss  10(-4) cm-1        Axes

              Baa    -0.7106    51.416    18.346    17.150  0.8691  0.4230  0.2562
     1 O(17)  Bbb    -0.6799    49.200    17.556    16.411 -0.4245  0.9039 -0.0526
              Bcc     1.3905  -100.615   -35.902   -33.562 -0.2539 -0.0631  0.9652
 
              Baa    -0.6568   -26.928    -9.608    -8.982  0.2708  0.9347  0.2301
     2 S(33)  Bbb    -0.5754   -23.592    -8.418    -7.870  0.9574 -0.2865  0.0371
              Bcc     1.2322    50.520    18.027    16.852 -0.1006 -0.2103  0.9725
 
              Baa    -0.1602    11.593     4.137     3.867  0.2708  0.9347  0.2301
     3 O(17)  Bbb    -0.1536    11.114     3.966     3.707  0.0205 -0.2446  0.9694
              Bcc     0.3138   -22.707    -8.103    -7.574  0.9624 -0.2578 -0.0854
 
              Baa    -0.7106    51.416    18.346    17.150 -0.4955  0.8664  0.0612
     4 O(17)  Bbb    -0.6799    49.200    17.556    16.411  0.8133  0.4381  0.3830
              Bcc     1.3905  -100.616   -35.902   -33.562 -0.3050 -0.2395  0.9217
 
              Baa    -0.0122    -6.493    -2.317    -2.166  0.2708  0.9347  0.2301
     5 H(1)   Bbb     0.0004     0.201     0.072     0.067  0.7517 -0.3547  0.5561
              Bcc     0.0118     6.292     2.245     2.099 -0.6014 -0.0224  0.7986
 

 ---------------------------------------------------------------------------------

 Calling FoFJK, ICntrl=      2127 FMM=F ISym2X=0 I1Cent= 0 IOpClX= 1 NMat=1 NMatS=1 NMatT=0.
 -------------------------------------------------------------------
 Center     Atomic                   Forces (Hartrees/Bohr)
 Number     Number              X              Y              Z
 -------------------------------------------------------------------
      1        8          -0.001908467    0.002211640    0.020602996
      2       16          -0.004838610    0.012634821   -0.045629160
      3        8           0.006894382   -0.003212953    0.004938160
      4        8          -0.005318239   -0.009550925    0.017710470
      5        1           0.005170935   -0.002082582    0.002377534
 -------------------------------------------------------------------
 Cartesian Forces:  Max     0.045629160 RMS     0.014720104
 TRJ-TRJ-TRJ-TRJ-TRJ-TRJ-TRJ-TRJ-TRJ-TRJ-TRJ-TRJ-TRJ-TRJ-TRJ-TRJ-TRJ-TRJ

 ADMP step      0
 Frobenius norm of [F,P] =     1.839215D-12
 Current gradient on entry to l121
 I=    1 X=   1.908466707023D-03 Y=  -2.211639618483D-03 Z=  -2.060299597370D-02
 I=    2 X=   4.838610296125D-03 Y=  -1.263482074303D-02 Z=   4.562916021155D-02
 I=    3 X=  -6.894381576693D-03 Y=   3.212953141214D-03 Z=  -4.938160140091D-03
 I=    4 X=   5.318239234920D-03 Y=   9.550925190300D-03 Z=  -1.771047019071D-02
 I=    5 X=  -5.170934661396D-03 Y=   2.082582030028D-03 Z=  -2.377533907074D-03

 Summary information for step      0
 Time (fs)     0.000000
 EKinC      =      0.1000000; EKinPA =      0.0000000; EKinPB =      0.0000000
 EKin       =      0.1000000; EPot   =   -624.3422929; ETot   =   -624.2422929
 ETot-EKinP =   -624.2422929
 Integrand for the Velocity-Velocity Auto-Correlation  Function =   1.875165883249D-01
 Angular momentum
   JX = -0.2830685382D-13  JY =  0.4202851289D-14  JZ =  0.3294404361D-13
 Jtot =  0.4363773529D-13 H-BAR;  J (Quantum Number) =  0.0000000000D+00
 Total energy  -6.242422929D+02 A.U.
 Total angular momentum   4.363774D-14 h-bar
 Tr(PA)-NA =  2.132D-14
 Tr(PA**2-PA) =  2.132D-13
 Tr[(PA**2-PA)**2] =  4.150D-16
 Tr(PB)-NB = -1.066D-14
 Tr(PB**2-PB) = -1.776D-14
 Tr[(PB**2-PB)**2] =  3.732D-16
 Cartesian coordinates:
 I=    1 X=  -1.667028712479D+00 Y=  -1.763133192784D+00 Z=  -1.291091659407D+00
 I=    2 X=  -3.834416909993D-01 Y=  -2.827768303190D-02 Z=   5.661387347205D-01
 I=    3 X=   2.609791893732D+00 Y=  -8.625010601734D-01 Z=   4.320286511124D-01
 I=    4 X=  -3.689361532671D-01 Y=   2.717175012246D+00 Z=  -1.881171020077D-01
 I=    5 X=   3.057188333175D+00 Y=  -5.557418183728D-01 Z=  -1.340581696883D+00
 MW Cartesian velocity:
 I=    1 X=   2.933403489608D+13 Y=   1.448832951761D+14 Z=   1.617956929242D+14
 I=    2 X=   3.874507609408D+13 Y=  -9.139924182657D+13 Z=  -1.467514533375D+14
 I=    3 X=  -8.380455606393D+13 Y=   2.341940241094D+13 Z=  -3.257446213541D+13
 I=    4 X=  -4.939894312157D+13 Y=  -3.147506748112D+13 Z=   1.858156722901D+13
 I=    5 X=   1.955685664200D+14 Y=  -3.029870431095D+13 Z=   2.377436487220D+14
 TRJ-TRJ-TRJ-TRJ-TRJ-TRJ-TRJ-TRJ-TRJ-TRJ-TRJ-TRJ-TRJ-TRJ-TRJ-TRJ-TRJ-TRJ
                          Input orientation:                          
 ---------------------------------------------------------------------
 Center     Atomic      Atomic             Coordinates (Angstroms)
 Number     Number       Type             X           Y           Z
 ---------------------------------------------------------------------
      1          8           0       -0.881766   -0.931093   -0.681072
      2         16           0       -0.202546   -0.015818    0.298211
      3          8           0        1.379935   -0.456107    0.228189
      4          8           0       -0.195887    1.437449   -0.099299
      5          1           0        1.628116   -0.295688   -0.696868
 ---------------------------------------------------------------------
                    Distance matrix (angstroms):
                    1          2          3          4          5
     1  O    0.000000
     2  S    1.502685   0.000000
     3  O    2.483477   1.644081   0.000000
     4  O    2.533551   1.506667   2.485159   0.000000
     5  H    2.589111   2.102340   0.971112   2.586086   0.000000
 Symmetry turned off by external request.
 Stoichiometry    HO3S(2)
 Framework group  C1[X(HO3S)]
 Deg. of freedom     9
 Full point group                 C1      NOp   1
 Rotational constants (GHZ):           8.6781027           8.6374249           4.9353288
 Standard basis: 6-31G(d) (6D, 7F)
    66 basis functions,   140 primitive gaussians,    66 cartesian basis functions
    21 alpha electrons       20 beta electrons
       nuclear repulsion energy       183.5227582950 Hartrees.
 NAtoms=    5 NActive=    5 NUniq=    5 SFac= 1.00D+00 NAtFMM=   60 NAOKFM=F Big=F
 Integral buffers will be    131072 words long.
 Raffenetti 2 integral format.
 Two-electron integral symmetry is turned off.
 One-electron integrals computed using PRISM.
 NBasis=    66 RedAO= T EigKep=  6.85D-03  NBF=    66
 NBsUse=    66 1.00D-06 EigRej= -1.00D+00 NBFU=    66
 Keep R1 and R2 ints in memory in canonical form, NReq=12004998.
 Requested convergence on RMS density matrix=1.00D-08 within 128 cycles.
 Requested convergence on MAX density matrix=1.00D-06.
 Requested convergence on             energy=1.00D-06.
 No special actions if energy rises.
 SCF Done:  E(UB3LYP) =  -624.342190036     A.U. after    1 cycles
            NFock=  1  Conv=0.20D+01     -V/T= 2.0054
 <Sx>= 0.0000 <Sy>= 0.0000 <Sz>= 0.5000 <S**2>= 0.7495 S= 0.4998
 <L.S>=  0.00000000000    
 Annihilation of the first spin contaminant:
 S**2 before annihilation     0.7575,   after     0.7500
 Calling FoFJK, ICntrl=      2127 FMM=F ISym2X=0 I1Cent= 0 IOpClX= 1 NMat=1 NMatS=1 NMatT=0.
 -------------------------------------------------------------------
 Center     Atomic                   Forces (Hartrees/Bohr)
 Number     Number              X              Y              Z
 -------------------------------------------------------------------
      1        8          -0.016175498   -0.022406811   -0.004583397
      2       16           0.004464319    0.040425852   -0.017842794
      3        8           0.011747461   -0.007986744    0.024659365
      4        8          -0.001722808   -0.011880724    0.015910041
      5        1           0.001686526    0.001848426   -0.018143214
 -------------------------------------------------------------------
 Cartesian Forces:  Max     0.040425852 RMS     0.016930891
 TRJ-TRJ-TRJ-TRJ-TRJ-TRJ-TRJ-TRJ-TRJ-TRJ-TRJ-TRJ-TRJ-TRJ-TRJ-TRJ-TRJ-TRJ

 ADMP step      1
 Frobenius norm of [F,P] =     8.684140D-02
 Current gradient on entry to l121
 I=    1 X=   1.617549793178D-02 Y=   2.240681107332D-02 Z=   4.583397318969D-03
 I=    2 X=  -4.464319268869D-03 Y=  -4.042585245434D-02 Z=   1.784279428983D-02
 I=    3 X=  -1.174746112119D-02 Y=   7.986743744226D-03 Z=  -2.465936494334D-02
 I=    4 X=   1.722808055632D-03 Y=   1.188072383775D-02 Z=  -1.591004050642D-02
 I=    5 X=  -1.686525597358D-03 Y=  -1.848426200958D-03 Z=   1.814321384092D-02

 Summary information for step      1
 Time (fs)     0.100000
 EKinC      =      0.0999092; EKinPA =      0.0000091; EKinPB =      0.0000090
 EKin       =      0.0999272; EPot   =   -624.3421900; ETot   =   -624.2422628
 ETot-EKinP =   -624.2422809
 Adiabaticity Index =    4.8151D-27
 Total Fictitiious Kinetic Energy =      0.0001807
 Integrand for the Velocity-Velocity Auto-Correlation  Function =   1.874306065848D-01
 Angular momentum
   JX = -0.2914061275D-13  JY =  0.1035689710D-13  JZ =  0.3788471840D-13
 Jtot =  0.4890493346D-13 H-BAR;  J (Quantum Number) =  0.0000000000D+00
 Total energy  -6.242422628D+02  Delta-E   3.012814D-05 A.U.
 Total angular momentum   4.890493D-14  Delta-A   5.267198D-15 h-bar
 Tr(PA)-NA = -3.553D-15
 Tr(PA**2-PA) =  2.025D-13
 Tr[(PA**2-PA)**2] =  3.506D-16
 Tr(PB)-NB =  3.553D-15
 Tr(PB**2-PB) = -3.553D-15
 Tr[(PB**2-PB)**2] =  3.053D-16
 Cartesian coordinates:
 I=    1 X=  -1.666295804556D+00 Y=  -1.759509886390D+00 Z=  -1.287040085321D+00
 I=    2 X=  -3.827571787189D-01 Y=  -2.989226144245D-02 Z=   5.635366878346D-01
 I=    3 X=   2.607698467401D+00 Y=  -8.619164237742D-01 Z=   4.312156075226D-01
 I=    4 X=  -3.701728815959D-01 Y=   2.716385211346D+00 Z=  -1.876472987188D-01
 I=    5 X=   3.076693171158D+00 Y=  -5.587695968384D-01 Z=  -1.316888747559D+00
 MW Cartesian velocity:
 I=    1 X=   2.912796743225D+13 Y=   1.446519812280D+14 Z=   1.619590225725D+14
 I=    2 X=   3.873809724949D+13 Y=  -9.096372524079D+13 Z=  -1.472817058219D+14
 I=    3 X=  -8.359053093607D+13 Y=   2.328351027006D+13 Z=  -3.222088725314D+13
 I=    4 X=  -4.948319711083D+13 Y=  -3.172764632136D+13 Z=   1.898776908668D+13
 I=    5 X=   1.959118239089D+14 Y=  -3.028260001962D+13 Z=   2.370527596469D+14
 TRJ-TRJ-TRJ-TRJ-TRJ-TRJ-TRJ-TRJ-TRJ-TRJ-TRJ-TRJ-TRJ-TRJ-TRJ-TRJ-TRJ-TRJ
                          Input orientation:                          
 ---------------------------------------------------------------------
 Center     Atomic      Atomic             Coordinates (Angstroms)
 Number     Number       Type             X           Y           Z
 ---------------------------------------------------------------------
      1          8           0       -0.881383   -0.929182   -0.678930
      2         16           0       -0.202184   -0.016667    0.296831
      3          8           0        1.378830   -0.455800    0.227767
      4          8           0       -0.196542    1.437027   -0.099045
      5          1           0        1.638448   -0.297278   -0.684414
 ---------------------------------------------------------------------
                    Distance matrix (angstroms):
                    1          2          3          4          5
     1  O    0.000000
     2  S    1.498702   0.000000
     3  O    2.480878   1.642319   0.000000
     4  O    2.530656   1.506644   2.484230   0.000000
     5  H    2.597861   2.104640   0.961564   2.591846   0.000000
 Symmetry turned off by external request.
 Stoichiometry    HO3S(2)
 Framework group  C1[X(HO3S)]
 Deg. of freedom     9
 Full point group                 C1      NOp   1
 Rotational constants (GHZ):           8.6921159           8.6625449           4.9418210
 Standard basis: 6-31G(d) (6D, 7F)
    66 basis functions,   140 primitive gaussians,    66 cartesian basis functions
    21 alpha electrons       20 beta electrons
       nuclear repulsion energy       183.7518472563 Hartrees.
 NAtoms=    5 NActive=    5 NUniq=    5 SFac= 1.00D+00 NAtFMM=   60 NAOKFM=F Big=F
 Integral buffers will be    131072 words long.
 Raffenetti 2 integral format.
 Two-electron integral symmetry is turned off.
 One-electron integrals computed using PRISM.
 NBasis=    66 RedAO= T EigKep=  6.87D-03  NBF=    66
 NBsUse=    66 1.00D-06 EigRej= -1.00D+00 NBFU=    66
 Keep R1 and R2 ints in memory in canonical form, NReq=12004998.
 Requested convergence on RMS density matrix=1.00D-08 within 128 cycles.
 Requested convergence on MAX density matrix=1.00D-06.
 Requested convergence on             energy=1.00D-06.
 No special actions if energy rises.
 SCF Done:  E(UB3LYP) =  -624.341445507     A.U. after    1 cycles
            NFock=  1  Conv=0.20D+01     -V/T= 2.0053
 <Sx>= 0.0000 <Sy>= 0.0000 <Sz>= 0.5000 <S**2>= 0.7418 S= 0.4959
 <L.S>=  0.00000000000    
 Annihilation of the first spin contaminant:
 S**2 before annihilation     0.7575,   after     0.7500
 Calling FoFJK, ICntrl=      2127 FMM=F ISym2X=0 I1Cent= 0 IOpClX= 1 NMat=1 NMatS=1 NMatT=0.
 -------------------------------------------------------------------
 Center     Atomic                   Forces (Hartrees/Bohr)
 Number     Number              X              Y              Z
 -------------------------------------------------------------------
      1        8          -0.027828360   -0.042434166   -0.025141070
      2       16           0.011536962    0.063075095    0.005051139
      3        8           0.015495395   -0.012391370    0.042539001
      4        8           0.001412630   -0.013680834    0.014316212
      5        1          -0.000616627    0.005431275   -0.036765282
 -------------------------------------------------------------------
 Cartesian Forces:  Max     0.063075095 RMS     0.027474997
 TRJ-TRJ-TRJ-TRJ-TRJ-TRJ-TRJ-TRJ-TRJ-TRJ-TRJ-TRJ-TRJ-TRJ-TRJ-TRJ-TRJ-TRJ

 ADMP step      2
 Frobenius norm of [F,P] =     1.490766D-01
 Current gradient on entry to l121
 I=    1 X=   2.782836047262D-02 Y=   4.243416629301D-02 Z=   2.514106984358D-02
 I=    2 X=  -1.153696211056D-02 Y=  -6.307509479793D-02 Z=  -5.051139088394D-03
 I=    3 X=  -1.549539533202D-02 Y=   1.239136953268D-02 Z=  -4.253900084627D-02
 I=    4 X=  -1.412630496964D-03 Y=   1.368083417258D-02 Z=  -1.431621152748D-02
 I=    5 X=   6.166274668393D-04 Y=  -5.431275200418D-03 Z=   3.676528161858D-02

 Summary information for step      2
 Time (fs)     0.200000
 EKinC      =      0.0990055; EKinPA =      0.0001275; EKinPB =      0.0001258
 EKin       =      0.0992588; EPot   =   -624.3414455; ETot   =   -624.2421867
 ETot-EKinP =   -624.2424400
 Adiabaticity Index =    2.7095D-04
 Integrand for the Velocity-Velocity Auto-Correlation  Function =   1.865759733042D-01
 Angular momentum
   JX = -0.3136615489D-13  JY =  0.1179729496D-13  JZ =  0.2315797404D-13
 Jtot =  0.4073455047D-13 H-BAR;  J (Quantum Number) =  0.0000000000D+00
 Total energy  -6.242421867D+02  Delta-E   7.607888D-05 A.U.
 Total angular momentum   4.073455D-14  Delta-A  -8.170383D-15 h-bar
 Tr(PA)-NA =  7.105D-15
 Tr(PA**2-PA) =  7.037D-11
 Tr[(PA**2-PA)**2] =  5.570D-13
 Tr(PB)-NB = -3.553D-15
 Tr(PB**2-PB) = -1.007D-10
 Tr[(PB**2-PB)**2] =  7.985D-13
 Cartesian coordinates:
 I=    1 X=  -1.665572082606D+00 Y=  -1.755899444062D+00 Z=  -1.282992421065D+00
 I=    2 X=  -3.820714943822D-01 Y=  -3.149514071452D-02 Z=   5.609292662797D-01
 I=    3 X=   2.605611702827D+00 Y=  -8.613366996079D-01 Z=   4.304173506656D-01
 I=    4 X=  -3.714107064037D-01 Y=   2.715588377766D+00 Z=  -1.871675626430D-01
 I=    5 X=   3.096218290096D+00 Y=  -5.617747802974D-01 Z=  -1.293355558038D+00
 MW Cartesian velocity:
 I=    1 X=   2.862946450995D+13 Y=   1.439067728701D+14 Z=   1.615408528038D+14
 I=    2 X=   3.885967935323D+13 Y=  -9.011815762204D+13 Z=  -1.473993553831D+14
 I=    3 X=  -8.328387709718D+13 Y=   2.303205386937D+13 Z=  -3.141398083649D+13
 I=    4 X=  -4.949227686027D+13 Y=  -3.203129346659D+13 Z=   1.937604804010D+13
 I=    5 X=   1.960274878045D+14 Y=  -2.986497483622D+13 Z=   2.346199270959D+14
 TRJ-TRJ-TRJ-TRJ-TRJ-TRJ-TRJ-TRJ-TRJ-TRJ-TRJ-TRJ-TRJ-TRJ-TRJ-TRJ-TRJ-TRJ
                          Input orientation:                          
 ---------------------------------------------------------------------
 Center     Atomic      Atomic             Coordinates (Angstroms)
 Number     Number       Type             X           Y           Z
 ---------------------------------------------------------------------
      1          8           0       -0.881008   -0.927284   -0.676797
      2         16           0       -0.201819   -0.017505    0.295452
      3          8           0        1.377731   -0.455497    0.227358
      4          8           0       -0.197197    1.436602   -0.098786
      5          1           0        1.648782   -0.298837   -0.672133
 ---------------------------------------------------------------------
                    Distance matrix (angstroms):
                    1          2          3          4          5
     1  O    0.000000
     2  S    1.494746   0.000000
     3  O    2.478302   1.640564   0.000000
     4  O    2.527776   1.506609   2.483305   0.000000
     5  H    2.606685   2.107152   0.952416   2.597712   0.000000
 Symmetry turned off by external request.
 Stoichiometry    HO3S(2)
 Framework group  C1[X(HO3S)]
 Deg. of freedom     9
 Full point group                 C1      NOp   1
 Rotational constants (GHZ):           8.7093526           8.6842397           4.9482498
 Standard basis: 6-31G(d) (6D, 7F)
    66 basis functions,   140 primitive gaussians,    66 cartesian basis functions
    21 alpha electrons       20 beta electrons
       nuclear repulsion energy       183.9794214852 Hartrees.
 NAtoms=    5 NActive=    5 NUniq=    5 SFac= 1.00D+00 NAtFMM=   60 NAOKFM=F Big=F
 Integral buffers will be    131072 words long.
 Raffenetti 2 integral format.
 Two-electron integral symmetry is turned off.
 One-electron integrals computed using PRISM.
 NBasis=    66 RedAO= T EigKep=  6.89D-03  NBF=    66
 NBsUse=    66 1.00D-06 EigRej= -1.00D+00 NBFU=    66
 Keep R1 and R2 ints in memory in canonical form, NReq=12004998.
 Requested convergence on RMS density matrix=1.00D-08 within 128 cycles.
 Requested convergence on MAX density matrix=1.00D-06.
 Requested convergence on             energy=1.00D-06.
 No special actions if energy rises.
 SCF Done:  E(UB3LYP) =  -624.340621676     A.U. after    1 cycles
            NFock=  1  Conv=0.20D+01     -V/T= 2.0053
 <Sx>= 0.0000 <Sy>= 0.0000 <Sz>= 0.5000 <S**2>= 0.7344 S= 0.4922
 <L.S>=  0.00000000000    
 Annihilation of the first spin contaminant:
 S**2 before annihilation     0.7575,   after     0.7500
 Calling FoFJK, ICntrl=      2127 FMM=F ISym2X=0 I1Cent= 0 IOpClX= 1 NMat=1 NMatS=1 NMatT=0.
 -------------------------------------------------------------------
 Center     Atomic                   Forces (Hartrees/Bohr)
 Number     Number              X              Y              Z
 -------------------------------------------------------------------
      1        8          -0.034595310   -0.054040850   -0.037175192
      2       16           0.014479941    0.076410887    0.018776038
      3        8           0.017611155   -0.015984590    0.056289844
      4        8           0.003678934   -0.014606698    0.013125849
      5        1          -0.001174720    0.008221252   -0.051016538
 -------------------------------------------------------------------
 Cartesian Forces:  Max     0.076410887 RMS     0.035312997
 TRJ-TRJ-TRJ-TRJ-TRJ-TRJ-TRJ-TRJ-TRJ-TRJ-TRJ-TRJ-TRJ-TRJ-TRJ-TRJ-TRJ-TRJ

 ADMP step      3
 Frobenius norm of [F,P] =     1.719863D-01
 Current gradient on entry to l121
 I=    1 X=   3.459531025346D-02 Y=   5.404085027391D-02 Z=   3.717519231698D-02
 I=    2 X=  -1.447994134107D-02 Y=  -7.641088689817D-02 Z=  -1.877603783276D-02
 I=    3 X=  -1.761115454491D-02 Y=   1.598459048021D-02 Z=  -5.628984412575D-02
 I=    4 X=  -3.678933884201D-03 Y=   1.460669845601D-02 Z=  -1.312584865074D-02
 I=    5 X=   1.174719516675D-03 Y=  -8.221252311799D-03 Z=   5.101653829230D-02
 DVelV2: Constraint failed to achieve ||WP+PW-W|| = 0
         ICType= 10 MaxIt=  30 Ademp= 1.24D-12 Conv= 1.00D-12

 Summary information for step      3
 Time (fs)     0.300000
 EKinC      =      0.0974903; EKinPA =      0.0005162; EKinPB =      0.0005095
 EKin       =      0.0985160; EPot   =   -624.3406217; ETot   =   -624.2421057
 ETot-EKinP =   -624.2431314
 Adiabaticity Index =    1.3181D-03
 Integrand for the Velocity-Velocity Auto-Correlation  Function =   1.851266730918D-01
 Angular momentum
   JX = -0.3117691451D-13  JY = -0.1306589638D-13  JZ =  0.3848314439D-13
 Jtot =  0.5122177319D-13 H-BAR;  J (Quantum Number) =  0.0000000000D+00
 Total energy  -6.242421057D+02  Delta-E   8.101696D-05 A.U.
 Total angular momentum   5.122177D-14  Delta-A   1.048722D-14 h-bar
 Tr(PA)-NA =  0.000D+00
 Tr(PA**2-PA) = -7.480D-11
 Tr[(PA**2-PA)**2] =  5.921D-13
 Tr(PB)-NB =  0.000D+00
 Tr(PB**2-PB) =  1.058D-10
 Tr[(PB**2-PB)**2] =  8.388D-13
 Cartesian coordinates:
 I=    1 X=  -1.664864103790D+00 Y=  -1.752313404008D+00 Z=  -1.278961758792D+00
 I=    2 X=  -3.813826816483D-01 Y=  -3.307981074099D-02 Z=   5.583230580373D-01
 I=    3 X=   2.603533611625D+00 Y=  -8.607646380272D-01 Z=   4.296446588097D-01
 I=    4 X=  -3.726478887921D-01 Y=   2.714783392095D+00 Z=  -1.866783423205D-01
 I=    5 X=   3.115746170879D+00 Y=  -5.647193586142D-01 Z=  -1.270147282625D+00
 MW Cartesian velocity:
 I=    1 X=   2.792486598346D+13 Y=   1.427961872242D+14 Z=   1.607065041576D+14
 I=    2 X=   3.905883284021D+13 Y=  -8.898058800263D+13 Z=  -1.472193187972D+14
 I=    3 X=  -8.291420201998D+13 Y=   2.268237266466D+13 Z=  -3.022640252928D+13
 I=    4 X=  -4.944257843313D+13 Y=  -3.236942725876D+13 Z=   1.974723231185D+13
 I=    5 X=   1.960420591442D+14 Y=  -2.910772931010D+13 Z=   2.307199646275D+14
 TRJ-TRJ-TRJ-TRJ-TRJ-TRJ-TRJ-TRJ-TRJ-TRJ-TRJ-TRJ-TRJ-TRJ-TRJ-TRJ-TRJ-TRJ
                          Input orientation:                          
 ---------------------------------------------------------------------
 Center     Atomic      Atomic             Coordinates (Angstroms)
 Number     Number       Type             X           Y           Z
 ---------------------------------------------------------------------
      1          8           0       -0.880644   -0.925403   -0.674678
      2         16           0       -0.201452   -0.018332    0.294075
      3          8           0        1.376636   -0.455200    0.226967
      4          8           0       -0.197850    1.436171   -0.098522
      5          1           0        1.659116   -0.300347   -0.660091
 ---------------------------------------------------------------------
                    Distance matrix (angstroms):
                    1          2          3          4          5
     1  O    0.000000
     2  S    1.490826   0.000000
     3  O    2.475756   1.638817   0.000000
     4  O    2.524915   1.506561   2.482385   0.000000
     5  H    2.615585   2.109900   0.943740   2.603685   0.000000
 Symmetry turned off by external request.
 Stoichiometry    HO3S(2)
 Framework group  C1[X(HO3S)]
 Deg. of freedom     9
 Full point group                 C1      NOp   1
 Rotational constants (GHZ):           8.7313401           8.7008918           4.9546043
 Standard basis: 6-31G(d) (6D, 7F)
    66 basis functions,   140 primitive gaussians,    66 cartesian basis functions
    21 alpha electrons       20 beta electrons
       nuclear repulsion energy       184.2047002775 Hartrees.
 NAtoms=    5 NActive=    5 NUniq=    5 SFac= 1.00D+00 NAtFMM=   60 NAOKFM=F Big=F
 Integral buffers will be    131072 words long.
 Raffenetti 2 integral format.
 Two-electron integral symmetry is turned off.
 One-electron integrals computed using PRISM.
 NBasis=    66 RedAO= T EigKep=  6.92D-03  NBF=    66
 NBsUse=    66 1.00D-06 EigRej= -1.00D+00 NBFU=    66
 Keep R1 and R2 ints in memory in canonical form, NReq=12004998.
 Requested convergence on RMS density matrix=1.00D-08 within 128 cycles.
 Requested convergence on MAX density matrix=1.00D-06.
 Requested convergence on             energy=1.00D-06.
 No special actions if energy rises.
 SCF Done:  E(UB3LYP) =  -624.340069978     A.U. after    1 cycles
            NFock=  1  Conv=0.20D+01     -V/T= 2.0052
 <Sx>= 0.0000 <Sy>= 0.0000 <Sz>= 0.5000 <S**2>= 0.7274 S= 0.4887
 <L.S>=  0.00000000000    
 Annihilation of the first spin contaminant:
 S**2 before annihilation     0.7575,   after     0.7500
 Calling FoFJK, ICntrl=      2127 FMM=F ISym2X=0 I1Cent= 0 IOpClX= 1 NMat=1 NMatS=1 NMatT=0.
 -------------------------------------------------------------------
 Center     Atomic                   Forces (Hartrees/Bohr)
 Number     Number              X              Y              Z
 -------------------------------------------------------------------
      1        8          -0.035628022   -0.055733666   -0.039179353
      2       16           0.012710701    0.078819532    0.021554942
      3        8           0.017875886   -0.018552429    0.064820044
      4        8           0.004819991   -0.014537686    0.012436073
      5        1           0.000221444    0.010004249   -0.059631706
 -------------------------------------------------------------------
 Cartesian Forces:  Max     0.078819532 RMS     0.038000000
 TRJ-TRJ-TRJ-TRJ-TRJ-TRJ-TRJ-TRJ-TRJ-TRJ-TRJ-TRJ-TRJ-TRJ-TRJ-TRJ-TRJ-TRJ

 ADMP step      4
 Frobenius norm of [F,P] =     1.595537D-01
 Current gradient on entry to l121
 I=    1 X=   3.562802180550D-02 Y=   5.573366629554D-02 Z=   3.917935257057D-02
 I=    2 X=  -1.271070113740D-02 Y=  -7.881953201111D-02 Z=  -2.155494221302D-02
 I=    3 X=  -1.787588574060D-02 Y=   1.855242883809D-02 Z=  -6.482004361463D-02
 I=    4 X=  -4.819990950318D-03 Y=   1.453768601217D-02 Z=  -1.243607265572D-02
 I=    5 X=  -2.214439771735D-04 Y=  -1.000424913471D-02 Z=   5.963170591288D-02
 DVelV2: Constraint failed to achieve ||WP+PW-W|| = 0
         ICType= 10 MaxIt=  30 Ademp= 1.65D-12 Conv= 1.00D-12
 DVelV2: Constraint failed to achieve ||WP+PW-W|| = 0
         ICType= 10 MaxIt=  30 Ademp= 1.23D-12 Conv= 1.00D-12

 Summary information for step      4
 Time (fs)     0.400000
 EKinC      =      0.0956499; EKinPA =      0.0011944; EKinPB =      0.0011800
 EKin       =      0.0980243; EPot   =   -624.3400700; ETot   =   -624.2420457
 ETot-EKinP =   -624.2444201
 Adiabaticity Index =    2.7202D-03
 Integrand for the Velocity-Velocity Auto-Correlation  Function =   1.833361045778D-01
 Angular momentum
   JX = -0.2714217281D-13  JY =  0.5566063843D-14  JZ =  0.3014592078D-13
 Jtot =  0.4094453750D-13 H-BAR;  J (Quantum Number) =  0.0000000000D+00
 Total energy  -6.242420457D+02  Delta-E   6.000522D-05 A.U.
 Total angular momentum   4.094454D-14  Delta-A  -1.027724D-14 h-bar
 Tr(PA)-NA = -7.105D-15
 Tr(PA**2-PA) = -1.128D-10
 Tr[(PA**2-PA)**2] =  8.922D-13
 Tr(PB)-NB = -1.066D-14
 Tr(PB**2-PB) = -8.611D-11
 Tr[(PB**2-PB)**2] =  6.819D-13
 Cartesian coordinates:
 I=    1 X=  -1.664175617366D+00 Y=  -1.748758499790D+00 Z=  -1.274955818599D+00
 I=    2 X=  -3.806899530979D-01 Y=  -3.464245329121D-02 Z=   5.557220045164D-01
 I=    3 X=   2.601465333743D+00 Y=  -8.602024007004D-01 Z=   4.289057903066D-01
 I=    4 X=  -3.738832282836D-01 Y=   2.713969649138D+00 Z=  -1.861800440809D-01
 I=    5 X=   3.135274192750D+00 Y=  -5.675736820604D-01 Z=  -1.247391051657D+00
 MW Cartesian velocity:
 I=    1 X=   2.713589651075D+13 Y=   1.415294006958D+14 Z=   1.596905853466D+14
 I=    2 X=   3.926500274289D+13 Y=  -8.771642298988D+13 Z=  -1.469055126181D+14
 I=    3 X=  -8.251844311070D+13 Y=   2.226087090600D+13 Z=  -2.877262619074D+13
 I=    4 X=  -4.935869172147D+13 Y=  -3.272008625287D+13 Z=   2.010372489451D+13
 I=    5 X=   1.961131163937D+14 Y=  -2.810522696883D+13 Z=   2.257879471692D+14
 TRJ-TRJ-TRJ-TRJ-TRJ-TRJ-TRJ-TRJ-TRJ-TRJ-TRJ-TRJ-TRJ-TRJ-TRJ-TRJ-TRJ-TRJ
                          Input orientation:                          
 ---------------------------------------------------------------------
 Center     Atomic      Atomic             Coordinates (Angstroms)
 Number     Number       Type             X           Y           Z
 ---------------------------------------------------------------------
      1          8           0       -0.880290   -0.923539   -0.672572
      2         16           0       -0.201084   -0.019147    0.292702
      3          8           0        1.375547   -0.454908    0.226597
      4          8           0       -0.198503    1.435736   -0.098254
      5          1           0        1.669457   -0.301800   -0.648330
 ---------------------------------------------------------------------
                    Distance matrix (angstroms):
                    1          2          3          4          5
     1  O    0.000000
     2  S    1.486943   0.000000
     3  O    2.473241   1.637078   0.000000
     4  O    2.522073   1.506498   2.481470   0.000000
     5  H    2.624568   2.112902   0.935586   2.609767   0.000000
 Symmetry turned off by external request.
 Stoichiometry    HO3S(2)
 Framework group  C1[X(HO3S)]
 Deg. of freedom     9
 Full point group                 C1      NOp   1
 Rotational constants (GHZ):           8.7562810           8.7142603           4.9608820
 Standard basis: 6-31G(d) (6D, 7F)
    66 basis functions,   140 primitive gaussians,    66 cartesian basis functions
    21 alpha electrons       20 beta electrons
       nuclear repulsion energy       184.4272352399 Hartrees.
 NAtoms=    5 NActive=    5 NUniq=    5 SFac= 1.00D+00 NAtFMM=   60 NAOKFM=F Big=F
 Integral buffers will be    131072 words long.
 Raffenetti 2 integral format.
 Two-electron integral symmetry is turned off.
 One-electron integrals computed using PRISM.
 NBasis=    66 RedAO= T EigKep=  6.94D-03  NBF=    66
 NBsUse=    66 1.00D-06 EigRej= -1.00D+00 NBFU=    66
 Keep R1 and R2 ints in memory in canonical form, NReq=12004998.
 Requested convergence on RMS density matrix=1.00D-08 within 128 cycles.
 Requested convergence on MAX density matrix=1.00D-06.
 Requested convergence on             energy=1.00D-06.
 No special actions if energy rises.
 SCF Done:  E(UB3LYP) =  -624.339693251     A.U. after    1 cycles
            NFock=  1  Conv=0.20D+01     -V/T= 2.0051
 <Sx>= 0.0000 <Sy>= 0.0000 <Sz>= 0.5000 <S**2>= 0.7208 S= 0.4853
 <L.S>=  0.00000000000    
 Annihilation of the first spin contaminant:
 S**2 before annihilation     0.7574,   after     0.7500
 Calling FoFJK, ICntrl=      2127 FMM=F ISym2X=0 I1Cent= 0 IOpClX= 1 NMat=1 NMatS=1 NMatT=0.
 -------------------------------------------------------------------
 Center     Atomic                   Forces (Hartrees/Bohr)
 Number     Number              X              Y              Z
 -------------------------------------------------------------------
      1        8          -0.031691574   -0.048669710   -0.032348602
      2       16           0.007136115    0.071571469    0.014455581
      3        8           0.016324716   -0.020165175    0.068585763
      4        8           0.004772067   -0.013597091    0.012238062
      5        1           0.003458676    0.010860508   -0.062930804
 -------------------------------------------------------------------
 Cartesian Forces:  Max     0.071571469 RMS     0.036172413
 TRJ-TRJ-TRJ-TRJ-TRJ-TRJ-TRJ-TRJ-TRJ-TRJ-TRJ-TRJ-TRJ-TRJ-TRJ-TRJ-TRJ-TRJ

 ADMP step      5
 Frobenius norm of [F,P] =     1.362539D-01
 Current gradient on entry to l121
 I=    1 X=   3.169157394352D-02 Y=   4.866971041019D-02 Z=   3.234860195350D-02
 I=    2 X=  -7.136115040859D-03 Y=  -7.157146885983D-02 Z=  -1.445558100258D-02
 I=    3 X=  -1.632471608930D-02 Y=   2.016517541523D-02 Z=  -6.858576285905D-02
 I=    4 X=  -4.772067145540D-03 Y=   1.359709090466D-02 Z=  -1.223806200329D-02
 I=    5 X=  -3.458675667779D-03 Y=  -1.086050787020D-02 Z=   6.293080391138D-02
 DVelV2: Constraint failed to achieve ||WP+PW-W|| = 0
         ICType= 10 MaxIt=  30 Ademp= 2.09D-12 Conv= 1.00D-12
 DVelV2: Constraint failed to achieve ||WP+PW-W|| = 0
         ICType= 10 MaxIt=  30 Ademp= 1.56D-12 Conv= 1.00D-12

 Summary information for step      5
 Time (fs)     0.500000
 EKinC      =      0.0937754; EKinPA =      0.0019683; EKinPB =      0.0019478
 EKin       =      0.0976915; EPot   =   -624.3396933; ETot   =   -624.2420017
 ETot-EKinP =   -624.2459178
 Adiabaticity Index =    3.4851D-03
 Integrand for the Velocity-Velocity Auto-Correlation  Function =   1.814703922904D-01
 Angular momentum
   JX = -0.1665079324D-13  JY =  0.4466859927D-14  JZ =  0.3667793625D-13
 Jtot =  0.4052743220D-13 H-BAR;  J (Quantum Number) =  0.0000000000D+00
 Total energy  -6.242420017D+02  Delta-E   4.395916D-05 A.U.
 Total angular momentum   4.052743D-14  Delta-A  -4.171053D-16 h-bar
 Tr(PA)-NA = -7.105D-15
 Tr(PA**2-PA) =  8.497D-11
 Tr[(PA**2-PA)**2] =  6.728D-13
 Tr(PB)-NB =  1.066D-14
 Tr(PB**2-PB) = -1.184D-10
 Tr[(PB**2-PB)**2] =  9.383D-13
 Cartesian coordinates:
 I=    1 X=  -1.663507093295D+00 Y=  -1.745235809131D+00 Z=  -1.270975960340D+00
 I=    2 X=  -3.799938479742D-01 Y=  -3.618240881834D-02 Z=   5.531268958425D-01
 I=    3 X=   2.599407033632D+00 Y=  -8.596514175577D-01 Z=   4.282057988219D-01
 I=    4 X=  -3.751162156697D-01 Y=   2.713147127731D+00 Z=  -1.856729962960D-01
 I=    5 X=   3.154816229704D+00 Y=  -5.703185397968D-01 Z=  -1.225165342915D+00
 MW Cartesian velocity:
 I=    1 X=   2.638444757815D+13 Y=   1.403194542652D+14 Z=   1.587334201281D+14
 I=    2 X=   3.941072962965D+13 Y=  -8.649380243696D+13 Z=  -1.466271604693D+14
 I=    3 X=  -8.213524292430D+13 Y=   2.179559871045D+13 Z=  -2.717577905464D+13
 I=    4 X=  -4.926871669333D+13 Y=  -3.306130773546D+13 Z=   2.044917870312D+13
 I=    5 X=   1.964009145908D+14 Y=  -2.695839422610D+13 Z=   2.202955674327D+14
 TRJ-TRJ-TRJ-TRJ-TRJ-TRJ-TRJ-TRJ-TRJ-TRJ-TRJ-TRJ-TRJ-TRJ-TRJ-TRJ-TRJ-TRJ
                          Input orientation:                          
 ---------------------------------------------------------------------
 Center     Atomic      Atomic             Coordinates (Angstroms)
 Number     Number       Type             X           Y           Z
 ---------------------------------------------------------------------
      1          8           0       -0.879946   -0.921690   -0.670477
      2         16           0       -0.200715   -0.019951    0.291331
      3          8           0        1.374463   -0.454623    0.226248
      4          8           0       -0.199154    1.435296   -0.097981
      5          1           0        1.679821   -0.303189   -0.636867
 ---------------------------------------------------------------------
                    Distance matrix (angstroms):
                    1          2          3          4          5
     1  O    0.000000
     2  S    1.483092   0.000000
     3  O    2.470754   1.635347   0.000000
     4  O    2.519248   1.506423   2.480562   0.000000
     5  H    2.633643   2.116173   0.927978   2.615966   0.000000
 Symmetry turned off by external request.
 Stoichiometry    HO3S(2)
 Framework group  C1[X(HO3S)]
 Deg. of freedom     9
 Full point group                 C1      NOp   1
 Rotational constants (GHZ):           8.7823316           8.7261976           4.9670873
 Standard basis: 6-31G(d) (6D, 7F)
    66 basis functions,   140 primitive gaussians,    66 cartesian basis functions
    21 alpha electrons       20 beta electrons
       nuclear repulsion energy       184.6468874007 Hartrees.
 NAtoms=    5 NActive=    5 NUniq=    5 SFac= 1.00D+00 NAtFMM=   60 NAOKFM=F Big=F
 Integral buffers will be    131072 words long.
 Raffenetti 2 integral format.
 Two-electron integral symmetry is turned off.
 One-electron integrals computed using PRISM.
 NBasis=    66 RedAO= T EigKep=  6.96D-03  NBF=    66
 NBsUse=    66 1.00D-06 EigRej= -1.00D+00 NBFU=    66
 Keep R1 and R2 ints in memory in canonical form, NReq=12004998.
 Requested convergence on RMS density matrix=1.00D-08 within 128 cycles.
 Requested convergence on MAX density matrix=1.00D-06.
 Requested convergence on             energy=1.00D-06.
 No special actions if energy rises.
 SCF Done:  E(UB3LYP) =  -624.339187322     A.U. after    1 cycles
            NFock=  1  Conv=0.20D+01     -V/T= 2.0050
 <Sx>= 0.0000 <Sy>= 0.0000 <Sz>= 0.5000 <S**2>= 0.7146 S= 0.4822
 <L.S>=  0.00000000000    
 Annihilation of the first spin contaminant:
 S**2 before annihilation     0.7574,   after     0.7500
 Calling FoFJK, ICntrl=      2127 FMM=F ISym2X=0 I1Cent= 0 IOpClX= 1 NMat=1 NMatS=1 NMatT=0.
 -------------------------------------------------------------------
 Center     Atomic                   Forces (Hartrees/Bohr)
 Number     Number              X              Y              Z
 -------------------------------------------------------------------
      1        8          -0.024807995   -0.036128204   -0.020020206
      2       16          -0.000186305    0.058235299    0.000827761
      3        8           0.013126006   -0.021126807    0.069393997
      4        8           0.003664071   -0.012105192    0.012449443
      5        1           0.008204223    0.011124904   -0.062650996
 -------------------------------------------------------------------
 Cartesian Forces:  Max     0.069393997 RMS     0.032227207
 TRJ-TRJ-TRJ-TRJ-TRJ-TRJ-TRJ-TRJ-TRJ-TRJ-TRJ-TRJ-TRJ-TRJ-TRJ-TRJ-TRJ-TRJ

 ADMP step      6
 Frobenius norm of [F,P] =     1.311465D-01
 Current gradient on entry to l121
 I=    1 X=   2.480799458210D-02 Y=   3.612820394912D-02 Z=   2.002020592053D-02
 I=    2 X=   1.863052065785D-04 Y=  -5.823529898700D-02 Z=  -8.277611042899D-04
 I=    3 X=  -1.312600586525D-02 Y=   2.112680739949D-02 Z=  -6.939399710029D-02
 I=    4 X=  -3.664071366428D-03 Y=   1.210519173216D-02 Z=  -1.244944337621D-02
 I=    5 X=  -8.204222556990D-03 Y=  -1.112490409380D-02 Z=   6.265099566031D-02
 DVelV2: Constraint failed to achieve ||WP+PW-W|| = 0
         ICType= 10 MaxIt=  30 Ademp= 2.32D-12 Conv= 1.00D-12
 DVelV2: Constraint failed to achieve ||WP+PW-W|| = 0
         ICType= 10 MaxIt=  30 Ademp= 1.81D-12 Conv= 1.00D-12

 Summary information for step      6
 Time (fs)     0.600000
 EKinC      =      0.0920911; EKinPA =      0.0025777; EKinPB =      0.0025597
 EKin       =      0.0972285; EPot   =   -624.3391873; ETot   =   -624.2419588
 ETot-EKinP =   -624.2470963
 Adiabaticity Index =    3.0782D-03
 Integrand for the Velocity-Velocity Auto-Correlation  Function =   1.797422179444D-01
 Angular momentum
   JX = -0.4371262249D-13  JY =  0.1800743627D-13  JZ =  0.3783339509D-13
 Jtot =  0.6055102733D-13 H-BAR;  J (Quantum Number) =  0.0000000000D+00
 Total energy  -6.242419588D+02  Delta-E   4.290863D-05 A.U.
 Total angular momentum   6.055103D-14  Delta-A   2.002360D-14 h-bar
 Tr(PA)-NA = -1.066D-14
 Tr(PA**2-PA) =  1.083D-10
 Tr[(PA**2-PA)**2] =  8.578D-13
 Tr(PB)-NB =  1.421D-14
 Tr(PB**2-PB) =  8.387D-11
 Tr[(PB**2-PB)**2] =  6.647D-13
 Cartesian coordinates:
 I=    1 X=  -1.662856185290D+00 Y=  -1.741741411850D+00 Z=  -1.267017886016D+00
 I=    2 X=  -3.792959649505D-01 Y=  -3.770180632905D-02 Z=   5.505356878535D-01
 I=    3 X=   2.597357918804D+00 Y=  -8.591124475385D-01 Z=   4.275467853670D-01
 I=    4 X=  -3.763470556947D-01 Y=   2.712316320988D+00 Z=  -1.851574226204D-01
 I=    5 X=   3.174401587324D+00 Y=  -5.729443888627D-01 Z=  -1.203503315147D+00
 MW Cartesian velocity:
 I=    1 X=   2.575939905469D+13 Y=   1.393289401812D+14 Z=   1.580202411370D+14
 I=    2 X=   3.945290006930D+13 Y=  -8.544106351967D+13 Z=  -1.465169871499D+14
 I=    3 X=  -8.180141788593D+13 Y=   2.130884032105D+13 Z=  -2.553246793834D+13
 I=    4 X=  -4.919909911285D+13 Y=  -3.337614863253D+13 Z=   2.078821875296D+13
 I=    5 X=   1.970462295340D+14 Y=  -2.574839627731D+13 Z=   2.146188900123D+14
 TRJ-TRJ-TRJ-TRJ-TRJ-TRJ-TRJ-TRJ-TRJ-TRJ-TRJ-TRJ-TRJ-TRJ-TRJ-TRJ-TRJ-TRJ
                          Input orientation:                          
 ---------------------------------------------------------------------
 Center     Atomic      Atomic             Coordinates (Angstroms)
 Number     Number       Type             X           Y           Z
 ---------------------------------------------------------------------
      1          8           0       -0.879608   -0.919852   -0.668390
      2         16           0       -0.200346   -0.020746    0.289960
      3          8           0        1.373382   -0.454344    0.225921
      4          8           0       -0.199805    1.434852   -0.097704
      5          1           0        1.690230   -0.304514   -0.625704
 ---------------------------------------------------------------------
                    Distance matrix (angstroms):
                    1          2          3          4          5
     1  O    0.000000
     2  S    1.479264   0.000000
     3  O    2.468290   1.633624   0.000000
     4  O    2.516436   1.506337   2.479660   0.000000
     5  H    2.642827   2.119727   0.920927   2.622291   0.000000
 Symmetry turned off by external request.
 Stoichiometry    HO3S(2)
 Framework group  C1[X(HO3S)]
 Deg. of freedom     9
 Full point group                 C1      NOp   1
 Rotational constants (GHZ):           8.8087989           8.7374360           4.9732293
 Standard basis: 6-31G(d) (6D, 7F)
    66 basis functions,   140 primitive gaussians,    66 cartesian basis functions
    21 alpha electrons       20 beta electrons
       nuclear repulsion energy       184.8637191254 Hartrees.
 NAtoms=    5 NActive=    5 NUniq=    5 SFac= 1.00D+00 NAtFMM=   60 NAOKFM=F Big=F
 Integral buffers will be    131072 words long.
 Raffenetti 2 integral format.
 Two-electron integral symmetry is turned off.
 One-electron integrals computed using PRISM.
 NBasis=    66 RedAO= T EigKep=  6.99D-03  NBF=    66
 NBsUse=    66 1.00D-06 EigRej= -1.00D+00 NBFU=    66
 Keep R1 and R2 ints in memory in canonical form, NReq=12004998.
 Requested convergence on RMS density matrix=1.00D-08 within 128 cycles.
 Requested convergence on MAX density matrix=1.00D-06.
 Requested convergence on             energy=1.00D-06.
 No special actions if energy rises.
 SCF Done:  E(UB3LYP) =  -624.338420335     A.U. after    1 cycles
            NFock=  1  Conv=0.20D+01     -V/T= 2.0049
 <Sx>= 0.0000 <Sy>= 0.0000 <Sz>= 0.5000 <S**2>= 0.7088 S= 0.4792
 <L.S>=  0.00000000000    
 Annihilation of the first spin contaminant:
 S**2 before annihilation     0.7574,   after     0.7500
 Calling FoFJK, ICntrl=      2127 FMM=F ISym2X=0 I1Cent= 0 IOpClX= 1 NMat=1 NMatS=1 NMatT=0.
 -------------------------------------------------------------------
 Center     Atomic                   Forces (Hartrees/Bohr)
 Number     Number              X              Y              Z
 -------------------------------------------------------------------
      1        8          -0.017514353   -0.022365228   -0.006484422
      2       16          -0.006760983    0.043424869   -0.014911175
      3        8           0.008477175   -0.021841056    0.069737657
      4        8           0.001779620   -0.010480232    0.012966444
      5        1           0.014018540    0.011261646   -0.061308505
 -------------------------------------------------------------------
 Cartesian Forces:  Max     0.069737657 RMS     0.029187006
 TRJ-TRJ-TRJ-TRJ-TRJ-TRJ-TRJ-TRJ-TRJ-TRJ-TRJ-TRJ-TRJ-TRJ-TRJ-TRJ-TRJ-TRJ

 ADMP step      7
 Frobenius norm of [F,P] =     1.398277D-01
 Current gradient on entry to l121
 I=    1 X=   1.751435284358D-02 Y=   2.236522757092D-02 Z=   6.484421634955D-03
 I=    2 X=   6.760982519711D-03 Y=  -4.342486935070D-02 Z=   1.491117457062D-02
 I=    3 X=  -8.477175355729D-03 Y=   2.184105562559D-02 Z=  -6.973765668742D-02
 I=    4 X=  -1.779619586888D-03 Y=   1.048023225514D-02 Z=  -1.296644440171D-02
 I=    5 X=  -1.401854042076D-02 Y=  -1.126164610101D-02 Z=   6.130850488358D-02
 DVelV2: Constraint failed to achieve ||WP+PW-W|| = 0
         ICType= 10 MaxIt=  30 Ademp= 1.84D-12 Conv= 1.00D-12
 DVelV2: Constraint failed to achieve ||WP+PW-W|| = 0
         ICType= 10 MaxIt=  30 Ademp= 1.58D-12 Conv= 1.00D-12

 Summary information for step      7
 Time (fs)     0.700000
 EKinC      =      0.0907133; EKinPA =      0.0028950; EKinPB =      0.0028930
 EKin       =      0.0965013; EPot   =   -624.3384203; ETot   =   -624.2419190
 ETot-EKinP =   -624.2477071
 Adiabaticity Index =    1.9323D-03
 Integrand for the Velocity-Velocity Auto-Correlation  Function =   1.782658966324D-01
 Angular momentum
   JX = -0.3141333668D-13  JY =  0.2723148263D-13  JZ =  0.2291898629D-13
 Jtot =  0.4747242673D-13 H-BAR;  J (Quantum Number) =  0.0000000000D+00
 Total energy  -6.242419190D+02  Delta-E   3.979602D-05 A.U.
 Total angular momentum   4.747243D-14  Delta-A  -1.307860D-14 h-bar
 Tr(PA)-NA =  7.105D-15
 Tr(PA**2-PA) =  1.196D-10
 Tr[(PA**2-PA)**2] =  9.469D-13
 Tr(PB)-NB =  0.000D+00
 Tr(PB**2-PB) =  9.549D-11
 Tr[(PB**2-PB)**2] =  7.586D-13
 Cartesian coordinates:
 I=    1 X=  -1.662218918612D+00 Y=  -1.738268254767D+00 Z=  -1.263073692375D+00
 I=    2 X=  -3.785983682256D-01 Y=  -3.920452566222D-02 Z=   5.479444760956D-01
 I=    3 X=   2.595316312599D+00 Y=  -8.585858061838D-01 Z=   4.269289724988D-01
 I=    4 X=  -3.775765616485D-01 Y=   2.711478055033D+00 Z=  -1.846334201383D-01
 I=    5 X=   3.194072185250D+00 Y=  -5.754481883164D-01 Z=  -1.182408525769D+00
 MW Cartesian velocity:
 I=    1 X=   2.529630576069D+13 Y=   1.386348012140D+14 Z=   1.576418288724D+14
 I=    2 X=   3.938540279533D+13 Y=  -8.461926586319D+13 Z=  -1.466440557794D+14
 I=    3 X=  -8.155085063689D+13 Y=   2.081231822360D+13 Z=  -2.388778357538D+13
 I=    4 X=  -4.917008997053D+13 Y=  -3.365600110022D+13 Z=   2.112632544939D+13
 I=    5 X=   1.981574966841D+14 Y=  -2.451883876820D+13 Z=   2.089430532884D+14
 TRJ-TRJ-TRJ-TRJ-TRJ-TRJ-TRJ-TRJ-TRJ-TRJ-TRJ-TRJ-TRJ-TRJ-TRJ-TRJ-TRJ-TRJ
                          Input orientation:                          
 ---------------------------------------------------------------------
 Center     Atomic      Atomic             Coordinates (Angstroms)
 Number     Number       Type             X           Y           Z
 ---------------------------------------------------------------------
      1          8           0       -0.879276   -0.918021   -0.666305
      2         16           0       -0.199978   -0.021535    0.288586
      3          8           0        1.372305   -0.454072    0.225616
      4          8           0       -0.200455    1.434405   -0.097422
      5          1           0        1.700711   -0.305774   -0.614839
 ---------------------------------------------------------------------
                    Distance matrix (angstroms):
                    1          2          3          4          5
     1  O    0.000000
     2  S    1.475450   0.000000
     3  O    2.465844   1.631908   0.000000
     4  O    2.513630   1.506242   2.478765   0.000000
     5  H    2.652137   2.123579   0.914444   2.628760   0.000000
 Symmetry turned off by external request.
 Stoichiometry    HO3S(2)
 Framework group  C1[X(HO3S)]
 Deg. of freedom     9
 Full point group                 C1      NOp   1
 Rotational constants (GHZ):           8.8354594           8.7482462           4.9793180
 Standard basis: 6-31G(d) (6D, 7F)
    66 basis functions,   140 primitive gaussians,    66 cartesian basis functions
    21 alpha electrons       20 beta electrons
       nuclear repulsion energy       185.0778415790 Hartrees.
 NAtoms=    5 NActive=    5 NUniq=    5 SFac= 1.00D+00 NAtFMM=   60 NAOKFM=F Big=F
 Integral buffers will be    131072 words long.
 Raffenetti 2 integral format.
 Two-electron integral symmetry is turned off.
 One-electron integrals computed using PRISM.
 NBasis=    66 RedAO= T EigKep=  7.01D-03  NBF=    66
 NBsUse=    66 1.00D-06 EigRej= -1.00D+00 NBFU=    66
 Keep R1 and R2 ints in memory in canonical form, NReq=12004998.
 Requested convergence on RMS density matrix=1.00D-08 within 128 cycles.
 Requested convergence on MAX density matrix=1.00D-06.
 Requested convergence on             energy=1.00D-06.
 No special actions if energy rises.
 SCF Done:  E(UB3LYP) =  -624.337522735     A.U. after    1 cycles
            NFock=  1  Conv=0.20D+01     -V/T= 2.0049
 <Sx>= 0.0000 <Sy>= 0.0000 <Sz>= 0.5000 <S**2>= 0.7034 S= 0.4764
 <L.S>=  0.00000000000    
 Annihilation of the first spin contaminant:
 S**2 before annihilation     0.7573,   after     0.7500
 Calling FoFJK, ICntrl=      2127 FMM=F ISym2X=0 I1Cent= 0 IOpClX= 1 NMat=1 NMatS=1 NMatT=0.
 -------------------------------------------------------------------
 Center     Atomic                   Forces (Hartrees/Bohr)
 Number     Number              X              Y              Z
 -------------------------------------------------------------------
      1        8          -0.012029840   -0.011276949    0.004384300
      2       16          -0.010472675    0.031342939   -0.028673238
      3        8           0.002580167   -0.022652990    0.071928640
      4        8          -0.000509707   -0.009117555    0.013708669
      5        1           0.020432055    0.011704555   -0.061348371
 -------------------------------------------------------------------
 Cartesian Forces:  Max     0.071928640 RMS     0.028853966
 TRJ-TRJ-TRJ-TRJ-TRJ-TRJ-TRJ-TRJ-TRJ-TRJ-TRJ-TRJ-TRJ-TRJ-TRJ-TRJ-TRJ-TRJ

 ADMP step      8
 Frobenius norm of [F,P] =     1.391877D-01
 Current gradient on entry to l121
 I=    1 X=   1.202984009926D-02 Y=   1.127694908166D-02 Z=  -4.384299972649D-03
 I=    2 X=   1.047267454019D-02 Y=  -3.134293929355D-02 Z=   2.867323838692D-02
 I=    3 X=  -2.580166786505D-03 Y=   2.265299008045D-02 Z=  -7.192864011573D-02
 I=    4 X=   5.097068794888D-04 Y=   9.117555407293D-03 Z=  -1.370866930481D-02
 I=    5 X=  -2.043205473239D-02 Y=  -1.170455527580D-02 Z=   6.134837100624D-02

 Summary information for step      8
 Time (fs)     0.800000
 EKinC      =      0.0896484; EKinPA =      0.0029727; EKinPB =      0.0030001
 EKin       =      0.0956212; EPot   =   -624.3375227; ETot   =   -624.2419015
 ETot-EKinP =   -624.2478743
 Adiabaticity Index =    9.2490D-04
 Integrand for the Velocity-Velocity Auto-Correlation  Function =   1.770456910589D-01
 Angular momentum
   JX = -0.3530798056D-13  JY =  0.1272882965D-13  JZ =  0.2746744711D-13
 Jtot =  0.4650953930D-13 H-BAR;  J (Quantum Number) =  0.0000000000D+00
 Total energy  -6.242419015D+02  Delta-E   1.749231D-05 A.U.
 Total angular momentum   4.650954D-14  Delta-A  -9.628874D-16 h-bar
 Tr(PA)-NA = -1.066D-14
 Tr(PA**2-PA) =  9.208D-11
 Tr[(PA**2-PA)**2] =  7.294D-13
 Tr(PB)-NB =  3.553D-15
 Tr(PB**2-PB) =  8.103D-11
 Tr[(PB**2-PB)**2] =  6.434D-13
 Cartesian coordinates:
 I=    1 X=  -1.661591168952D+00 Y=  -1.734808569952D+00 Z=  -1.259134541671D+00
 I=    2 X=  -3.779028726330D-01 Y=  -4.069485555091D-02 Z=   5.453487735904D-01
 I=    3 X=   2.593279728125D+00 Y=  -8.580716662158D-01 Z=   4.263522063337D-01
 I=    4 X=  -3.788059509858D-01 Y=   2.710633253443D+00 Z=  -1.841009384408D-01
 I=    5 X=   3.213878931799D+00 Y=  -5.778290824039D-01 Z=  -1.161877249878D+00
 MW Cartesian velocity:
 I=    1 X=   2.497549155429D+13 Y=   1.382214323723D+14 Z=   1.575866754568D+14
 I=    2 X=   3.923929603030D+13 Y=  -8.401695335586D+13 Z=  -1.470080591664D+14
 I=    3 X=  -8.141453140836D+13 Y=   2.030649346253D+13 Z=  -2.222849034925D+13
 I=    4 X=  -4.919276514968D+13 Y=  -3.390138832800D+13 Z=   2.146974267856D+13
 I=    5 X=   1.998057532693D+14 Y=  -2.327183214030D+13 Z=   2.032345696161D+14
 TRJ-TRJ-TRJ-TRJ-TRJ-TRJ-TRJ-TRJ-TRJ-TRJ-TRJ-TRJ-TRJ-TRJ-TRJ-TRJ-TRJ-TRJ
                          Input orientation:                          
 ---------------------------------------------------------------------
 Center     Atomic      Atomic             Coordinates (Angstroms)
 Number     Number       Type             X           Y           Z
 ---------------------------------------------------------------------
      1          8           0       -0.878947   -0.916194   -0.664220
      2         16           0       -0.199611   -0.022319    0.287208
      3          8           0        1.371228   -0.453807    0.225333
      4          8           0       -0.201107    1.433955   -0.097136
      5          1           0        1.711294   -0.306967   -0.604278
 ---------------------------------------------------------------------
                    Distance matrix (angstroms):
                    1          2          3          4          5
     1  O    0.000000
     2  S    1.471641   0.000000
     3  O    2.463411   1.630198   0.000000
     4  O    2.510827   1.506140   2.477875   0.000000
     5  H    2.661598   2.127753   0.908549   2.635391   0.000000
 Symmetry turned off by external request.
 Stoichiometry    HO3S(2)
 Framework group  C1[X(HO3S)]
 Deg. of freedom     9
 Full point group                 C1      NOp   1
 Rotational constants (GHZ):           8.8622351           8.7587414           4.9853610
 Standard basis: 6-31G(d) (6D, 7F)
    66 basis functions,   140 primitive gaussians,    66 cartesian basis functions
    21 alpha electrons       20 beta electrons
       nuclear repulsion energy       185.2892707780 Hartrees.
 NAtoms=    5 NActive=    5 NUniq=    5 SFac= 1.00D+00 NAtFMM=   60 NAOKFM=F Big=F
 Integral buffers will be    131072 words long.
 Raffenetti 2 integral format.
 Two-electron integral symmetry is turned off.
 One-electron integrals computed using PRISM.
 NBasis=    66 RedAO= T EigKep=  7.03D-03  NBF=    66
 NBsUse=    66 1.00D-06 EigRej= -1.00D+00 NBFU=    66
 Keep R1 and R2 ints in memory in canonical form, NReq=12004998.
 Requested convergence on RMS density matrix=1.00D-08 within 128 cycles.
 Requested convergence on MAX density matrix=1.00D-06.
 Requested convergence on             energy=1.00D-06.
 No special actions if energy rises.
 SCF Done:  E(UB3LYP) =  -624.336665603     A.U. after    1 cycles
            NFock=  1  Conv=0.20D+01     -V/T= 2.0048
 <Sx>= 0.0000 <Sy>= 0.0000 <Sz>= 0.5000 <S**2>= 0.6985 S= 0.4739
 <L.S>=  0.00000000000    
 Annihilation of the first spin contaminant:
 S**2 before annihilation     0.7573,   after     0.7500
 Calling FoFJK, ICntrl=      2127 FMM=F ISym2X=0 I1Cent= 0 IOpClX= 1 NMat=1 NMatS=1 NMatT=0.
 -------------------------------------------------------------------
 Center     Atomic                   Forces (Hartrees/Bohr)
 Number     Number              X              Y              Z
 -------------------------------------------------------------------
      1        8          -0.009623918   -0.005319957    0.010209207
      2       16          -0.010226683    0.024613026   -0.037801376
      3        8          -0.004298639   -0.023728685    0.077338548
      4        8          -0.002823418   -0.008284238    0.014635247
      5        1           0.026972658    0.012719854   -0.064381626
 -------------------------------------------------------------------
 Cartesian Forces:  Max     0.077338548 RMS     0.030824625
 TRJ-TRJ-TRJ-TRJ-TRJ-TRJ-TRJ-TRJ-TRJ-TRJ-TRJ-TRJ-TRJ-TRJ-TRJ-TRJ-TRJ-TRJ

 ADMP step      9
 Frobenius norm of [F,P] =     1.278193D-01
 Current gradient on entry to l121
 I=    1 X=   9.623918119360D-03 Y=   5.319956964636D-03 Z=  -1.020920650805D-02
 I=    2 X=   1.022668251296D-02 Y=  -2.461302640479D-02 Z=   3.780137592892D-02
 I=    3 X=   4.298639290194D-03 Y=   2.372868520769D-02 Z=  -7.733854783843D-02
 I=    4 X=   2.823418231961D-03 Y=   8.284238194154D-03 Z=  -1.463524733095D-02
 I=    5 X=  -2.697265815440D-02 Y=  -1.271985396168D-02 Z=   6.438162574854D-02
 DVelV2: Constraint failed to achieve ||WP+PW-W|| = 0
         ICType= 10 MaxIt=  30 Ademp= 5.11D-12 Conv= 1.00D-12
 DVelV2: Constraint failed to achieve ||WP+PW-W|| = 0
         ICType= 10 MaxIt=  30 Ademp= 3.01D-12 Conv= 1.00D-12

 Summary information for step      9
 Time (fs)     0.900000
 EKinC      =      0.0888213; EKinPA =      0.0029286; EKinPB =      0.0029959
 EKin       =      0.0947459; EPot   =   -624.3366656; ETot   =   -624.2419198
 ETot-EKinP =   -624.2478443
 Adiabaticity Index =    5.0656D-04
 Integrand for the Velocity-Velocity Auto-Correlation  Function =   1.759972409991D-01
 Angular momentum
   JX = -0.4070535136D-13  JY =  0.8977702122D-14  JZ =  0.3954694751D-13
 Jtot =  0.5745855743D-13 H-BAR;  J (Quantum Number) =  0.0000000000D+00
 Total energy  -6.242419198D+02  Delta-E  -1.820088D-05 A.U.
 Total angular momentum   5.745856D-14  Delta-A   1.094902D-14 h-bar
 Tr(PA)-NA =  7.105D-15
 Tr(PA**2-PA) = -1.073D-10
 Tr[(PA**2-PA)**2] =  8.510D-13
 Tr(PB)-NB =  3.553D-15
 Tr(PB**2-PB) =  9.180D-11
 Tr[(PB**2-PB)**2] =  7.284D-13
 Cartesian coordinates:
 I=    1 X=  -1.660969945535D+00 Y=  -1.731356084596D+00 Z=  -1.255193106140D+00
 I=    2 X=  -3.772104438180D-01 Y=  -4.217627062241D-02 Z=   5.427446867497D-01
 I=    3 X=   2.591244938965D+00 Y=  -8.575703201194D-01 Z=   4.258173713144D-01
 I=    4 X=  -3.800365908787D-01 Y=   2.709782716176D+00 Z=  -1.835597623679D-01
 I=    5 X=   3.233877898796D+00 Y=  -5.800844506298D-01 Z=  -1.141919716370D+00
 MW Cartesian velocity:
 I=    1 X=   2.473726502456D+13 Y=   1.380012850076D+14 Z=   1.577634324739D+14
 I=    2 X=   3.907109443814D+13 Y=  -8.356650171415D+13 Z=  -1.475540988461D+14
 I=    3 X=  -8.141979642195D+13 Y=   1.978380422816D+13 Z=  -2.049557979375D+13
 I=    4 X=  -4.926815534764D+13 Y=  -3.412021078655D+13 Z=   2.182511265258D+13
 I=    5 X=   2.020234940616D+14 Y=  -2.197788706393D+13 Z=   1.972866042113D+14
 TRJ-TRJ-TRJ-TRJ-TRJ-TRJ-TRJ-TRJ-TRJ-TRJ-TRJ-TRJ-TRJ-TRJ-TRJ-TRJ-TRJ-TRJ
                          Input orientation:                          
 ---------------------------------------------------------------------
 Center     Atomic      Atomic             Coordinates (Angstroms)
 Number     Number       Type             X           Y           Z
 ---------------------------------------------------------------------
      1          8           0       -0.878622   -0.914369   -0.662130
      2         16           0       -0.199246   -0.023099    0.285824
      3          8           0        1.370150   -0.453548    0.225073
      4          8           0       -0.201759    1.433502   -0.096844
      5          1           0        1.722010   -0.308091   -0.594040
 ---------------------------------------------------------------------
                    Distance matrix (angstroms):
                    1          2          3          4          5
     1  O    0.000000
     2  S    1.467832   0.000000
     3  O    2.460988   1.628491   0.000000
     4  O    2.508026   1.506031   2.476992   0.000000
     5  H    2.671234   2.132277   0.903278   2.642203   0.000000
 Symmetry turned off by external request.
 Stoichiometry    HO3S(2)
 Framework group  C1[X(HO3S)]
 Deg. of freedom     9
 Full point group                 C1      NOp   1
 Rotational constants (GHZ):           8.8890865           8.7689720           4.9913620
 Standard basis: 6-31G(d) (6D, 7F)
    66 basis functions,   140 primitive gaussians,    66 cartesian basis functions
    21 alpha electrons       20 beta electrons
       nuclear repulsion energy       185.4978385465 Hartrees.
 NAtoms=    5 NActive=    5 NUniq=    5 SFac= 1.00D+00 NAtFMM=   60 NAOKFM=F Big=F
 Integral buffers will be    131072 words long.
 Raffenetti 2 integral format.
 Two-electron integral symmetry is turned off.
 One-electron integrals computed using PRISM.
 NBasis=    66 RedAO= T EigKep=  7.05D-03  NBF=    66
 NBsUse=    66 1.00D-06 EigRej= -1.00D+00 NBFU=    66
 Keep R1 and R2 ints in memory in canonical form, NReq=12004998.
 Requested convergence on RMS density matrix=1.00D-08 within 128 cycles.
 Requested convergence on MAX density matrix=1.00D-06.
 Requested convergence on             energy=1.00D-06.
 No special actions if energy rises.
 SCF Done:  E(UB3LYP) =  -624.335855022     A.U. after    1 cycles
            NFock=  1  Conv=0.20D+01     -V/T= 2.0048
 <Sx>= 0.0000 <Sy>= 0.0000 <Sz>= 0.5000 <S**2>= 0.6940 S= 0.4716
 <L.S>=  0.00000000000    
 Annihilation of the first spin contaminant:
 S**2 before annihilation     0.7572,   after     0.7500
 Calling FoFJK, ICntrl=      2127 FMM=F ISym2X=0 I1Cent= 0 IOpClX= 1 NMat=1 NMatS=1 NMatT=0.
 -------------------------------------------------------------------
 Center     Atomic                   Forces (Hartrees/Bohr)
 Number     Number              X              Y              Z
 -------------------------------------------------------------------
      1        8          -0.010374192   -0.005010965    0.010581411
      2       16          -0.006209475    0.023751685   -0.041554529
      3        8          -0.011733341   -0.025012307    0.085979812
      4        8          -0.004844189   -0.008059624    0.015727352
      5        1           0.033161197    0.014331211   -0.070734047
 -------------------------------------------------------------------
 Cartesian Forces:  Max     0.085979812 RMS     0.034033435
 TRJ-TRJ-TRJ-TRJ-TRJ-TRJ-TRJ-TRJ-TRJ-TRJ-TRJ-TRJ-TRJ-TRJ-TRJ-TRJ-TRJ-TRJ

 ADMP step     10
 Frobenius norm of [F,P] =     1.260745D-01
 Current gradient on entry to l121
 I=    1 X=   1.037419208596D-02 Y=   5.010965135750D-03 Z=  -1.058141109804D-02
 I=    2 X=   6.209474569875D-03 Y=  -2.375168491487D-02 Z=   4.155452881198D-02
 I=    3 X=   1.173334123122D-02 Y=   2.501230688276D-02 Z=  -8.597981195912D-02
 I=    4 X=   4.844189150851D-03 Y=   8.059623933871D-03 Z=  -1.572735225838D-02
 I=    5 X=  -3.316119703794D-02 Y=  -1.433121103755D-02 Z=   7.073404650353D-02
 DVelV2: Constraint failed to achieve ||WP+PW-W|| = 0
         ICType= 10 MaxIt=  30 Ademp= 1.35D-11 Conv= 1.00D-12
 DVelV2: Constraint failed to achieve ||WP+PW-W|| = 0
         ICType= 10 MaxIt=  30 Ademp= 8.94D-12 Conv= 1.00D-12

 Summary information for step     10
 Time (fs)     1.000000
 EKinC      =      0.0881218; EKinPA =      0.0028264; EKinPB =      0.0029409
 EKin       =      0.0938891; EPot   =   -624.3358550; ETot   =   -624.2419659
 ETot-EKinP =   -624.2477332
 Adiabaticity Index =    4.4984D-04
 Integrand for the Velocity-Velocity Auto-Correlation  Function =   1.749915108842D-01
 Angular momentum
   JX = -0.4710012772D-13  JY =  0.4011319742D-14  JZ =  0.4347999477D-13
 Jtot =  0.6422633932D-13 H-BAR;  J (Quantum Number) =  0.0000000000D+00
 Total energy  -6.242419659D+02  Delta-E  -4.612868D-05 A.U.
 Total angular momentum   6.422634D-14  Delta-A   6.767782D-15 h-bar
 Tr(PA)-NA =  0.000D+00
 Tr(PA**2-PA) = -8.624D-11
 Tr[(PA**2-PA)**2] =  6.842D-13
 Tr(PB)-NB = -3.553D-15
[...]
     2.200000     0.0864140  -624.3285122     0.0001946    -0.0000000000000021
     2.300000     0.0864773  -624.3285712     0.0001990    -0.0000000000000003
     2.400000     0.0865559  -624.3286433     0.0002056     0.0000000000000008
     2.500000     0.0866298  -624.3287094     0.0002133    -0.0000000000000038
     2.600000     0.0866837  -624.3287570     0.0002196    -0.0000000000000134
     2.700000     0.0866705  -624.3287408     0.0002227    -0.0000000000000123
     2.800000     0.0865066  -624.3285766     0.0002230     0.0000000000000022
     2.900000     0.0861096  -624.3281808     0.0002217     0.0000000000000053
     3.000000     0.0854461  -624.3275209     0.0002181     0.0000000000000047
     3.100000     0.0845499  -624.3266334     0.0002095    -0.0000000000000163
     3.200000     0.0834912  -624.3255914     0.0001927    -0.0000000000000072
     3.300000     0.0823211  -624.3244461     0.0001679    -0.0000000000000017
     3.400000     0.0810404  -624.3231928     0.0001405    -0.0000000000000084
     3.500000     0.0796254  -624.3217998     0.0001185    -0.0000000000000081
     3.600000     0.0780864  -624.3202729     0.0001064    -0.0000000000000028
     3.700000     0.0764826  -624.3186741     0.0001014     0.0000000000000023
     3.800000     0.0748576  -624.3170524     0.0000981     0.0000000000000013
     3.900000     0.0731672  -624.3153631     0.0000971     0.0000000000000038
     4.000000     0.0713111  -624.3134987     0.0001053     0.0000000000000035
     4.100000     0.0692618  -624.3114293     0.0001254     0.0000000000000162
     4.200000     0.0671380  -624.3092838     0.0001472     0.0000000000000241
     4.300000     0.0651007  -624.3072384     0.0001553     0.0000000000000266
     4.400000     0.0631714  -624.3053177     0.0001467     0.0000000000000267
     4.500000     0.0612016  -624.3033585     0.0001360     0.0000000000000262
     4.600000     0.0590559  -624.3012102     0.0001387     0.0000000000000317
     4.700000     0.0567967  -624.2989369     0.0001528     0.0000000000000348
     4.800000     0.0546325  -624.2967636     0.0001619     0.0000000000000256
     4.900000     0.0526869  -624.2948232     0.0001566     0.0000000000000205
     5.000000     0.0508729  -624.2930202     0.0001457     0.0000000000000318
                             Max Error =      0.0003914     0.0000000000000348

 Density conservation (alpha)
    Time (fs)      Electron #     Av. Idempot     RMS Idempot
     0.000000  0.000000000000  0.000000000000  0.000000000000
     0.100000 -0.000000000000  0.000000000000  0.000000000000
     0.200000  0.000000000000  0.000000000070  0.000000000001
     0.300000  0.000000000000 -0.000000000075  0.000000000001
     0.400000 -0.000000000000 -0.000000000113  0.000000000001
     0.500000 -0.000000000000  0.000000000085  0.000000000001
     0.600000 -0.000000000000  0.000000000108  0.000000000001
     0.700000  0.000000000000  0.000000000120  0.000000000001
     0.800000 -0.000000000000  0.000000000092  0.000000000001
     0.900000  0.000000000000 -0.000000000107  0.000000000001
     1.000000  0.000000000000 -0.000000000086  0.000000000001
     1.100000 -0.000000000085  0.000000000054  0.000000000001
     1.200000 -0.000000000163  0.000000000104  0.000000000002
     1.300000 -0.000000000271  0.000000000172  0.000000000003
     1.400000 -0.000000000417  0.000000000264  0.000000000005
     1.500000 -0.000000000607  0.000000000385  0.000000000008
     1.600000 -0.000000000821  0.000000000521  0.000000000010
     1.700000 -0.000000000977  0.000000000620  0.000000000012
     1.800000 -0.000000000928  0.000000000589  0.000000000012
     1.900000 -0.000000000518  0.000000000329  0.000000000007
     2.000000  0.000000000339 -0.000000000215  0.000000000004
     2.100000  0.000000001621 -0.000000001025  0.000000000021
     2.200000  0.000000003185 -0.000000002011  0.000000000040
     2.300000  0.000000004676 -0.000000002949  0.000000000059
     2.400000  0.000000005272 -0.000000003320  0.000000000067
     2.500000  0.000000003382 -0.000000002128  0.000000000043
     2.600000 -0.000000003173  0.000000001995  0.000000000040
     2.700000 -0.000000015646  0.000000009831  0.000000000198
     2.800000 -0.000000031738  0.000000019933  0.000000000402
     2.900000 -0.000000044601  0.000000027999  0.000000000564
     3.000000 -0.000000046232  0.000000029008  0.000000000585
     3.100000 -0.000000032862  0.000000020607  0.000000000416
     3.200000 -0.000000006999  0.000000004386  0.000000000088
     3.300000  0.000000024731 -0.000000015488  0.000000000313
     3.400000  0.000000054183 -0.000000033911  0.000000000685
     3.500000  0.000000072331 -0.000000045239  0.000000000914
     3.600000  0.000000069455 -0.000000043410  0.000000000878
     3.700000  0.000000038217 -0.000000023868  0.000000000483
     3.800000 -0.000000019158  0.000000011955  0.000000000242
     3.900000 -0.000000084625  0.000000052754  0.000000001068
     4.000000 -0.000000128057  0.000000079740  0.000000001616
     4.100000 -0.000000122762  0.000000076355  0.000000001549
     4.200000 -0.000000062085  0.000000038573  0.000000000783
     4.300000  0.000000033103 -0.000000020547  0.000000000417
     4.400000  0.000000114987 -0.000000071316  0.000000001450
     4.500000  0.000000113772 -0.000000070522  0.000000001434
     4.600000 -0.000000045670  0.000000028297  0.000000000576
     4.700000 -0.000000400244  0.000000247881  0.000000005044
     4.800000 -0.000000883136  0.000000546679  0.000000011128
     4.900000 -0.000001293670  0.000000800277  0.000000016298
     5.000000 -0.000001381343  0.000000853774  0.000000017398
 Max Error =  -0.000001381343  0.000000853774  0.000000017398

 Density conservation (beta)
    Time (fs)      Electron #     Av. Idempot     RMS Idempot
     0.000000 -0.000000000000 -0.000000000000  0.000000000000
     0.100000  0.000000000000 -0.000000000000  0.000000000000
     0.200000 -0.000000000000 -0.000000000101  0.000000000001
     0.300000  0.000000000000  0.000000000106  0.000000000001
     0.400000 -0.000000000000 -0.000000000086  0.000000000001
     0.500000  0.000000000000 -0.000000000118  0.000000000001
     0.600000  0.000000000000  0.000000000084  0.000000000001
     0.700000  0.000000000000  0.000000000095  0.000000000001
     0.800000  0.000000000000  0.000000000081  0.000000000001
     0.900000  0.000000000000  0.000000000092  0.000000000001
     1.000000 -0.000000000000  0.000000000087  0.000000000001
     1.100000 -0.000000000057  0.000000000036  0.000000000001
     1.200000 -0.000000000116  0.000000000073  0.000000000001
     1.300000 -0.000000000203  0.000000000129  0.000000000003
     1.400000 -0.000000000332  0.000000000210  0.000000000004
     1.500000 -0.000000000518  0.000000000329  0.000000000007
     1.600000 -0.000000000754  0.000000000478  0.000000000010
     1.700000 -0.000000000963  0.000000000611  0.000000000012
     1.800000 -0.000000000981  0.000000000622  0.000000000012
     1.900000 -0.000000000593  0.000000000376  0.000000000008
     2.000000  0.000000000375 -0.000000000237  0.000000000005
     2.100000  0.000000001995 -0.000000001260  0.000000000025
     2.200000  0.000000004188 -0.000000002641  0.000000000053
     2.300000  0.000000006567 -0.000000004134  0.000000000083
     2.400000  0.000000008002 -0.000000005031  0.000000000101
     2.500000  0.000000005971 -0.000000003749  0.000000000076
     2.600000 -0.000000003576  0.000000002243  0.000000000045
     2.700000 -0.000000024208  0.000000015176  0.000000000306
     2.800000 -0.000000054299  0.000000034016  0.000000000686
     2.900000 -0.000000083378  0.000000052198  0.000000001054
     3.000000 -0.000000095643  0.000000059832  0.000000001209
     3.100000 -0.000000079720  0.000000049832  0.000000001007
     3.200000 -0.000000035700  0.000000022298  0.000000000451
     3.300000  0.000000025424 -0.000000015868  0.000000000321
     3.400000  0.000000085560 -0.000000053362  0.000000001080
     3.500000  0.000000121762 -0.000000075888  0.000000001537
     3.600000  0.000000108911 -0.000000067832  0.000000001375
     3.700000  0.000000029596 -0.000000018420  0.000000000373
     3.800000 -0.000000106757  0.000000066387  0.000000001347
     3.900000 -0.000000248625  0.000000154453  0.000000003136
     4.000000 -0.000000313214  0.000000194357  0.000000003949
     4.100000 -0.000000226776  0.000000140550  0.000000002858
     4.200000  0.000000031633 -0.000000019583  0.000000000399
     4.300000  0.000000405697 -0.000000250867  0.000000005110
     4.400000  0.000000750650 -0.000000463739  0.000000009453
     4.500000  0.000000825166 -0.000000509383  0.000000010389
     4.600000  0.000000313490 -0.000000193394  0.000000003946
     4.700000 -0.000001053775  0.000000649719  0.000000013263
     4.800000 -0.000003249056  0.000002001965  0.000000040887
     4.900000 -0.000005714677  0.000003518526  0.000000071900
     5.000000 -0.000007469397  0.000004594726  0.000000093954
 Max Error =  -0.000007469397  0.000004594726  0.000000093954
 TRJ-TRJ-TRJ-TRJ-TRJ-TRJ-TRJ-TRJ-TRJ-TRJ-TRJ-TRJ-TRJ-TRJ-TRJ-TRJ-TRJ-TRJ
                          Input orientation:                          
 ---------------------------------------------------------------------
 Center     Atomic      Atomic             Coordinates (Angstroms)
 Number     Number       Type             X           Y           Z
 ---------------------------------------------------------------------
      1          8           0       -0.876961   -0.855070   -0.587552
      2         16           0       -0.180724   -0.045704    0.230769
      3          8           0        1.326980   -0.449806    0.233224
      4          8           0       -0.228974    1.414756   -0.081139
      5          1           0        2.225118   -0.293993   -0.409699
 ---------------------------------------------------------------------
                    Distance matrix (angstroms):
                    1          2          3          4          5
     1  O    0.000000
     2  S    1.345164   0.000000
     3  O    2.386476   1.560922   0.000000
     4  O    2.414218   1.494174   2.448756   0.000000
     5  H    3.157425   2.501983   1.115472   3.008379   0.000000
 Symmetry turned off by external request.
 Stoichiometry    HO3S(2)
 Framework group  C1[X(HO3S)]
 Deg. of freedom     9
 Full point group                 C1      NOp   1
 Rotational constants (GHZ):           9.8182486           9.0069587           5.1553399

 **********************************************************************

            Population analysis using the SCF Density.

 **********************************************************************

 Alpha  occ. eigenvalues --  -89.12511 -19.23276 -19.20682 -19.20682  -8.15813
 Alpha  occ. eigenvalues --   -6.12281  -6.12062  -6.11997  -1.16161  -1.06085
 Alpha  occ. eigenvalues --   -1.03716  -0.70142  -0.56435  -0.52269  -0.50475
 Alpha  occ. eigenvalues --   -0.45344  -0.40999  -0.37420  -0.36270  -0.32768
 Alpha  occ. eigenvalues --   -0.32320
 Alpha virt. eigenvalues --   -0.00434   0.05259   0.05333   0.08376   0.24506
 Alpha virt. eigenvalues --    0.31943   0.33484   0.35669   0.57248   0.59875
 Alpha virt. eigenvalues --    0.66865   0.74037   0.78382   0.82210   0.88136
 Alpha virt. eigenvalues --    0.88471   0.94397   0.98625   0.98662   0.99757
 Alpha virt. eigenvalues --    1.05943   1.11093   1.11975   1.21531   1.28732
 Alpha virt. eigenvalues --    1.52578   1.67731   1.72924   1.73512   1.75689
 Alpha virt. eigenvalues --    1.77068   1.78535   1.78535   1.84741   2.01437
 Alpha virt. eigenvalues --    2.05618   2.12062   2.26492   2.45607   2.64108
 Alpha virt. eigenvalues --    2.71146   3.55616   3.56732   3.76995   3.94109
  Beta  occ. eigenvalues --  -89.12342 -19.23038 -19.19792 -19.19792  -8.15622
  Beta  occ. eigenvalues --   -6.12183  -6.12009  -6.11493  -1.14996  -1.04877
  Beta  occ. eigenvalues --   -1.01480  -0.68043  -0.55286  -0.50473  -0.48656
  Beta  occ. eigenvalues --   -0.43823  -0.39510  -0.36414  -0.32626  -0.31952
  Beta virt. eigenvalues --   -0.20834   0.00978   0.05774   0.07395   0.09008
  Beta virt. eigenvalues --    0.25428   0.32081   0.34093   0.35992   0.58465
  Beta virt. eigenvalues --    0.60610   0.69463   0.74537   0.79360   0.83032
  Beta virt. eigenvalues --    0.88834   0.88999   0.95648   1.00002   1.00624
  Beta virt. eigenvalues --    1.00877   1.06523   1.11513   1.12693   1.22576
  Beta virt. eigenvalues --    1.29227   1.53309   1.68021   1.73725   1.74599
  Beta virt. eigenvalues --    1.77242   1.78909   1.79179   1.80194   1.86785
  Beta virt. eigenvalues --    2.02493   2.06672   2.13368   2.26826   2.46092
  Beta virt. eigenvalues --    2.65113   2.72220   3.55967   3.58125   3.78176
  Beta virt. eigenvalues --    3.94800
          Condensed to atoms (all electrons):
               1          2          3          4          5
     1  O    8.057246   0.430615  -0.049968  -0.051515   0.000834
     2  S    0.430615  14.175756   0.074770   0.288650   0.015265
     3  O   -0.049968   0.074770   8.445339  -0.040076   0.193958
     4  O   -0.051515   0.288650  -0.040076   8.248225  -0.001242
     5  H    0.000834   0.015265   0.193958  -0.001242   0.350850
          Atomic-Atomic Spin Densities.
               1          2          3          4          5
     1  O    0.250797  -0.117417   0.013701   0.011208  -0.000766
     2  S   -0.117417   0.771243  -0.176194  -0.115894   0.023209
     3  O    0.013701  -0.176194   0.182562   0.012785  -0.028981
     4  O    0.011208  -0.115894   0.012785   0.480854  -0.000109
     5  H   -0.000766   0.023209  -0.028981  -0.000109   0.071460
 Mulliken charges and spin densities:
               1          2
     1  O   -0.387213   0.157522
     2  S    1.014944   0.384947
     3  O   -0.624024   0.003873
     4  O   -0.444042   0.388845
     5  H    0.440335   0.064813
 Sum of Mulliken charges =  -0.00000   1.00000
 Mulliken charges and spin densities with hydrogens summed into heavy atoms:
               1          2
     1  O   -0.387213   0.157522
     2  S    1.014944   0.384947
     3  O   -0.183689   0.068686
     4  O   -0.444042   0.388845
 Electronic spatial extent (au):  <R**2>=            254.9073
 Charge=             -0.0000 electrons
 Dipole moment (field-independent basis, Debye):
    X=              2.6221    Y=             -0.7240    Z=              0.0464  Tot=              2.7206
 Quadrupole moment (field-independent basis, Debye-Ang):
   XX=            -22.9407   YY=            -33.0576   ZZ=            -27.4781
   XY=             -0.4833   XZ=             -4.1536   YZ=             -0.5592
 Traceless Quadrupole moment (field-independent basis, Debye-Ang):
   XX=              4.8848   YY=             -5.2321   ZZ=              0.3474
   XY=             -0.4833   XZ=             -4.1536   YZ=             -0.5592
 Octapole moment (field-independent basis, Debye-Ang**2):
  XXX=             16.8021  YYY=             -3.5966  ZZZ=             -0.8673  XYY=              0.9383
  XXY=             -0.0377  XXZ=             -5.2084  XZZ=              0.2776  YZZ=              0.4803
  YYZ=              0.2766  XYZ=              1.6953
 Hexadecapole moment (field-independent basis, Debye-Ang**3):
 XXXX=            -78.9523 YYYY=           -127.7784 ZZZZ=            -40.6497 XXXY=             -1.4164
 XXXZ=            -24.6274 YYYX=              4.9062 YYYZ=             -5.8012 ZZZX=            -12.0334
 ZZZY=             -4.5874 XXYY=            -42.9855 XXZZ=            -26.5941 YYZZ=            -26.9155
 XXYZ=             -0.0301 YYXZ=             -4.8930 ZZXY=              1.0779
 N-N= 1.910580419897D+02 E-N=-1.860672793368D+03  KE= 6.213489267466D+02
                          Isotropic Fermi Contact Couplings
        Atom                 a.u.       MegaHertz       Gauss      10(-4) cm-1
     1  O(17)              0.03950     -23.94239      -8.54324      -7.98632
     2  S(33)              0.72972     250.63751      89.43370      83.60367
     3  O(17)              0.31070    -188.34328     -67.20556     -62.82455
     4  O(17)              0.03455     -20.94573      -7.47396      -6.98674
     5  H(1)               0.02583     115.43827      41.19125      38.50606
 --------------------------------------------------------
       Center         ----  Spin Dipole Couplings  ----
                      3XX-RR        3YY-RR        3ZZ-RR
 --------------------------------------------------------
     1   Atom       -0.414866     -0.398459      0.813326
     2   Atom       -0.611212     -0.629674      1.240886
     3   Atom        0.030418     -0.003209     -0.027209
     4   Atom       -0.608278     -0.536756      1.145034
     5   Atom        0.005539     -0.002202     -0.003337
 --------------------------------------------------------
                        XY            XZ            YZ
 --------------------------------------------------------
     1   Atom        0.009339      0.120723     -0.122653
     2   Atom        0.014175      0.000267     -0.494424
     3   Atom       -0.077869     -0.033939      0.048577
     4   Atom        0.220694     -0.583126     -0.720461
     5   Atom       -0.001545     -0.002763     -0.000491
 --------------------------------------------------------


 ---------------------------------------------------------------------------------
              Anisotropic Spin Dipole Couplings in Principal Axis System
 ---------------------------------------------------------------------------------

       Atom             a.u.   MegaHertz   Gauss  10(-4) cm-1        Axes

              Baa    -0.4411    31.916    11.389    10.646  0.8156 -0.5630 -0.1335
     1 O(17)  Bbb    -0.3959    28.646    10.222     9.555  0.5708  0.8207  0.0263
              Bcc     0.8370   -60.562   -21.610   -20.201  0.0948 -0.0976  0.9907
 
              Baa    -0.7537   -30.899   -11.026   -10.307 -0.0966  0.9661  0.2395
     2 S(33)  Bbb    -0.6099   -25.004    -8.922    -8.341  0.9953  0.0934  0.0248
              Bcc     1.3635    55.904    19.948    18.647 -0.0016 -0.2408  0.9706
 
              Baa    -0.0754     5.458     1.947     1.821  0.4107  0.7706 -0.4873
     3 O(17)  Bbb    -0.0407     2.944     1.050     0.982  0.5835  0.1885  0.7899
              Bcc     0.1161    -8.402    -2.998    -2.803  0.7006 -0.6088 -0.3722
 
              Baa    -0.8043    58.197    20.766    19.412 -0.2241  0.9340  0.2782
     4 O(17)  Bbb    -0.7841    56.740    20.246    18.926  0.9355  0.1262  0.3299
              Bcc     1.5884  -114.937   -41.012   -38.339 -0.2730 -0.3342  0.9021
 
              Baa    -0.0045    -2.403    -0.857    -0.802  0.2995  0.3872  0.8720
     5 H(1)   Bbb    -0.0020    -1.086    -0.387    -0.362  0.0339  0.9091 -0.4153
              Bcc     0.0065     3.489     1.245     1.164  0.9535 -0.1539 -0.2591
 

 ---------------------------------------------------------------------------------

 Unable to Open any file for archive entry.
 1\1\GINC-SPARTAN-BM144\ADMP\UB3LYP\6-31G(d)\H1O3S1(2)\AKHALILOV\19-Mar
 -2025\0\\# B3LYP/6-31G(d) ADMP int=ultrafine\\TS3M_Product1 ADMP therm
 al decomposition simulation targeting 600K\\0,2\O,-0.8769609385,-0.855
 0695781,-0.5875517975\S,-0.1807240788,-0.045703656,0.230768668\O,1.326
 9800177,-0.449805737,0.2332240058\O,-0.2289742024,1.4147561327,-0.0811
 385809\H,2.2251176608,-0.2939932195,-0.4096990511\\Version=ES64L-G16Re
 vC.01\HF=-624.2930202\S2=0.748566\S2-1=0.\S2A=0.750018\RMSD=2.000e+00\
 RMSF=7.866e-02\Dipole=1.0316056,-0.284859,0.0182726\Quadrupole=3.63169
 37,-3.8899652,0.2582715,-0.3593102,-3.0881216,-0.4157266\PG=C01 [X(H1O
 3S1)]\\@
 The archive entry for this job was punched.


 PICNIC:  A SNACK IN THE GRASS.
 Job cpu time:       0 days  0 hours  6 minutes 28.6 seconds.
 Elapsed time:       0 days  0 hours  1 minutes 48.9 seconds.
 File lengths (MBytes):  RWF=      6 Int=      0 D2E=      0 Chk=      2 Scr=      1
 Normal termination of Gaussian 16 at Wed Mar 19 15:16:19 2025.
