PFMS Time step 25                                                       
SP        RB3LYP                                                      6-31G(d)            
Number of atoms                            I                9
Info1-9                                    I   N=           9
          18          18           0           0           0         110
           1          18        -502
Full Title                                 C   N=           2
PFMS Time step 25       
Route                                      C   N=           4
# B3LYP/6-31G(d) pop=full density=current       
Charge                                     I                0
Multiplicity                               I                1
Number of electrons                        I               74
Number of alpha electrons                  I               37
Number of beta electrons                   I               37
Number of basis functions                  I              126
Number of independent functions            I              126
Number of point charges in /Mol/           I                0
Number of translation vectors              I                0
Atomic numbers                             I   N=           9
           6           9           9           9          16           8
           8           8           1
Nuclear charges                            R   N=           9
  6.00000000E+00  9.00000000E+00  9.00000000E+00  9.00000000E+00  1.60000000E+01
  8.00000000E+00  8.00000000E+00  8.00000000E+00  1.00000000E+00
Current cartesian coordinates              R   N=          27
 -1.86095597E+00  8.89638925E-02  4.12932737E-02 -2.83465322E+00 -7.99905700E-02
 -2.42019717E+00 -2.68522864E+00  2.31085851E+00  1.02422524E+00 -3.16354936E+00
 -1.82949931E+00  1.36562127E+00  1.59421784E+00 -3.88849279E-01  1.18945276E-01
  2.63486537E+00  6.77901409E-02  2.64351331E+00  2.35981167E+00 -2.42704407E+00
 -1.33115962E+00  2.51308553E+00  2.17595215E+00 -1.52973945E+00  3.74703095E+00
  3.54190166E+00 -1.38642027E-01
Number of symbols in /Mol/                 I                0
Int Atom Types                             I   N=           9
           0           0           0           0           0           0
           0           0           0
Force Field                                I                0
Atom Types                                 C   N=           9
                                                            
                                                
MM charges                                 R   N=           9
  0.00000000E+00  0.00000000E+00  0.00000000E+00  0.00000000E+00  0.00000000E+00
  0.00000000E+00  0.00000000E+00  0.00000000E+00  0.00000000E+00
Integer atomic weights                     I   N=           9
          12          19          19          19          32          16
          16          16           1
Real atomic weights                        R   N=           9
  1.20000000E+01  1.89984032E+01  1.89984032E+01  1.89984032E+01  3.19720718E+01
  1.59949146E+01  1.59949146E+01  1.59949146E+01  1.00782504E+00
Atom fragment info                         I   N=           9
           0           0           0           0           0           0
           0           0           0
Atom residue num                           I   N=           9
           0           0           0           0           0           0
           0           0           0
Nuclear spins                              I   N=           9
           0           1           1           1           0           0
           0           0           1
Nuclear ZEff                               R   N=           9
 -3.60000000E+00 -6.75000000E+00 -6.75000000E+00 -6.75000000E+00 -1.36000000E+01
 -5.60000000E+00 -5.60000000E+00 -5.60000000E+00 -1.00000000E+00
Nuclear ZNuc                               R   N=           9
  6.00000000E+00  9.00000000E+00  9.00000000E+00  9.00000000E+00  1.60000000E+01
  8.00000000E+00  8.00000000E+00  8.00000000E+00  1.00000000E+00
Nuclear QMom                               R   N=           9
  0.00000000E+00  0.00000000E+00  0.00000000E+00  0.00000000E+00  0.00000000E+00
  0.00000000E+00  0.00000000E+00  0.00000000E+00  0.00000000E+00
Nuclear GFac                               R   N=           9
  0.00000000E+00  2.62886700E+00  2.62886700E+00  2.62886700E+00  0.00000000E+00
  0.00000000E+00  0.00000000E+00  0.00000000E+00  2.79284600E+00
MicOpt                                     I   N=           9
          -1          -1          -1          -1          -1          -1
          -1          -1          -1
Number of residues                         I                0
Number of secondary structures             I                0
SymInf integers                            I   N=          26
           1           1           1           1           1           0
           0           0           0           0           0           0
           0           0           0           0           0           0
           0           0           0           0           0           0
           0           0
RotTr to input orientation                 R   N=          12
  9.60807837E-01  3.78821598E-02  2.74614717E-01 -8.99983927E-02  9.79586555E-01
  1.79751133E-01 -2.62199524E-01 -1.97421181E-01  9.44603773E-01  7.82183435E-02
  2.35492307E-02  2.58922868E-02
Number of contracted shells                I               35
Number of primitive shells                 I               98
Pure/Cartesian d shells                    I                1
Pure/Cartesian f shells                    I                0
Highest angular momentum                   I                2
Largest degree of contraction              I                6
Shell types                                I   N=          35
           0          -1          -1           2           0          -1
          -1           2           0          -1          -1           2
           0          -1          -1           2           0          -1
          -1          -1           2           0          -1          -1
           2           0          -1          -1           2           0
          -1          -1           2           0           0
Number of primitives per shell             I   N=          35
           6           3           1           1           6           3
           1           1           6           3           1           1
           6           3           1           1           6           6
           3           1           1           6           3           1
           1           6           3           1           1           6
           3           1           1           3           1
Shell to atom map                          I   N=          35
           1           1           1           1           2           2
           2           2           3           3           3           3
           4           4           4           4           5           5
           5           5           5           6           6           6
           6           7           7           7           7           8
           8           8           8           9           9
Primitive exponents                        R   N=          98
  3.04752488E+03  4.57369518E+02  1.03948685E+02  2.92101553E+01  9.28666296E+00
  3.16392696E+00  7.86827235E+00  1.88128854E+00  5.44249258E-01  1.68714478E-01
  8.00000000E-01  7.00171309E+03  1.05136609E+03  2.39285690E+02  6.73974453E+01
  2.15199573E+01  7.40310130E+00  2.08479528E+01  4.80830834E+00  1.34406986E+00
  3.58151393E-01  8.00000000E-01  7.00171309E+03  1.05136609E+03  2.39285690E+02
  6.73974453E+01  2.15199573E+01  7.40310130E+00  2.08479528E+01  4.80830834E+00
  1.34406986E+00  3.58151393E-01  8.00000000E-01  7.00171309E+03  1.05136609E+03
  2.39285690E+02  6.73974453E+01  2.15199573E+01  7.40310130E+00  2.08479528E+01
  4.80830834E+00  1.34406986E+00  3.58151393E-01  8.00000000E-01  2.19171000E+04
  3.30149000E+03  7.54146000E+02  2.12711000E+02  6.79896000E+01  2.30515000E+01
  4.23735000E+02  1.00710000E+02  3.21599000E+01  1.18079000E+01  4.63110000E+00
  1.87025000E+00  2.61584000E+00  9.22167000E-01  3.41287000E-01  1.17167000E-01
  6.50000000E-01  5.48467166E+03  8.25234946E+02  1.88046958E+02  5.29645000E+01
  1.68975704E+01  5.79963534E+00  1.55396162E+01  3.59993359E+00  1.01376175E+00
  2.70005823E-01  8.00000000E-01  5.48467166E+03  8.25234946E+02  1.88046958E+02
  5.29645000E+01  1.68975704E+01  5.79963534E+00  1.55396162E+01  3.59993359E+00
  1.01376175E+00  2.70005823E-01  8.00000000E-01  5.48467166E+03  8.25234946E+02
  1.88046958E+02  5.29645000E+01  1.68975704E+01  5.79963534E+00  1.55396162E+01
  3.59993359E+00  1.01376175E+00  2.70005823E-01  8.00000000E-01  1.87311370E+01
  2.82539436E+00  6.40121692E-01  1.61277759E-01
Contraction coefficients                   R   N=          98
  1.83473713E-03  1.40373228E-02  6.88426223E-02  2.32184443E-01  4.67941348E-01
  3.62311985E-01 -1.19332420E-01 -1.60854152E-01  1.14345644E+00  1.00000000E+00
  1.00000000E+00  1.81961690E-03  1.39160796E-02  6.84053245E-02  2.33185760E-01
  4.71267439E-01  3.56618546E-01 -1.08506975E-01 -1.46451658E-01  1.12868858E+00
  1.00000000E+00  1.00000000E+00  1.81961690E-03  1.39160796E-02  6.84053245E-02
  2.33185760E-01  4.71267439E-01  3.56618546E-01 -1.08506975E-01 -1.46451658E-01
  1.12868858E+00  1.00000000E+00  1.00000000E+00  1.81961690E-03  1.39160796E-02
  6.84053245E-02  2.33185760E-01  4.71267439E-01  3.56618546E-01 -1.08506975E-01
 -1.46451658E-01  1.12868858E+00  1.00000000E+00  1.00000000E+00  1.86924085E-03
  1.42303065E-02  6.96962317E-02  2.38487108E-01  4.83307220E-01  3.38074154E-01
 -2.37677050E-03 -3.16930067E-02 -1.13317024E-01  5.60900118E-02  5.92255124E-01
  4.55006095E-01 -2.50373114E-01  6.69567631E-02  1.05450627E+00  1.00000000E+00
  1.00000000E+00  1.83107443E-03  1.39501722E-02  6.84450781E-02  2.32714336E-01
  4.70192898E-01  3.58520853E-01 -1.10777550E-01 -1.48026263E-01  1.13076702E+00
  1.00000000E+00  1.00000000E+00  1.83107443E-03  1.39501722E-02  6.84450781E-02
  2.32714336E-01  4.70192898E-01  3.58520853E-01 -1.10777550E-01 -1.48026263E-01
  1.13076702E+00  1.00000000E+00  1.00000000E+00  1.83107443E-03  1.39501722E-02
  6.84450781E-02  2.32714336E-01  4.70192898E-01  3.58520853E-01 -1.10777550E-01
 -1.48026263E-01  1.13076702E+00  1.00000000E+00  1.00000000E+00  3.34946043E-02
  2.34726953E-01  8.13757326E-01  1.00000000E+00
P(S=P) Contraction coefficients            R   N=          98
  0.00000000E+00  0.00000000E+00  0.00000000E+00  0.00000000E+00  0.00000000E+00
  0.00000000E+00  6.89990666E-02  3.16423961E-01  7.44308291E-01  1.00000000E+00
  0.00000000E+00  0.00000000E+00  0.00000000E+00  0.00000000E+00  0.00000000E+00
  0.00000000E+00  0.00000000E+00  7.16287242E-02  3.45912103E-01  7.22469956E-01
  1.00000000E+00  0.00000000E+00  0.00000000E+00  0.00000000E+00  0.00000000E+00
  0.00000000E+00  0.00000000E+00  0.00000000E+00  7.16287242E-02  3.45912103E-01
  7.22469956E-01  1.00000000E+00  0.00000000E+00  0.00000000E+00  0.00000000E+00
  0.00000000E+00  0.00000000E+00  0.00000000E+00  0.00000000E+00  7.16287242E-02
  3.45912103E-01  7.22469956E-01  1.00000000E+00  0.00000000E+00  0.00000000E+00
  0.00000000E+00  0.00000000E+00  0.00000000E+00  0.00000000E+00  0.00000000E+00
  4.06100998E-03  3.06812999E-02  1.30451999E-01  3.27204999E-01  4.52850998E-01
  2.56041999E-01 -1.45104895E-02  3.10262776E-01  7.54482456E-01  1.00000000E+00
  0.00000000E+00  0.00000000E+00  0.00000000E+00  0.00000000E+00  0.00000000E+00
  0.00000000E+00  0.00000000E+00  7.08742682E-02  3.39752839E-01  7.27158577E-01
  1.00000000E+00  0.00000000E+00  0.00000000E+00  0.00000000E+00  0.00000000E+00
  0.00000000E+00  0.00000000E+00  0.00000000E+00  7.08742682E-02  3.39752839E-01
  7.27158577E-01  1.00000000E+00  0.00000000E+00  0.00000000E+00  0.00000000E+00
  0.00000000E+00  0.00000000E+00  0.00000000E+00  0.00000000E+00  7.08742682E-02
  3.39752839E-01  7.27158577E-01  1.00000000E+00  0.00000000E+00  0.00000000E+00
  0.00000000E+00  0.00000000E+00  0.00000000E+00
Coordinates of each shell                  R   N=         105
 -1.86095597E+00  8.89638925E-02  4.12932737E-02 -1.86095597E+00  8.89638925E-02
  4.12932737E-02 -1.86095597E+00  8.89638925E-02  4.12932737E-02 -1.86095597E+00
  8.89638925E-02  4.12932737E-02 -2.83465322E+00 -7.99905700E-02 -2.42019717E+00
 -2.83465322E+00 -7.99905700E-02 -2.42019717E+00 -2.83465322E+00 -7.99905700E-02
 -2.42019717E+00 -2.83465322E+00 -7.99905700E-02 -2.42019717E+00 -2.68522864E+00
  2.31085851E+00  1.02422524E+00 -2.68522864E+00  2.31085851E+00  1.02422524E+00
 -2.68522864E+00  2.31085851E+00  1.02422524E+00 -2.68522864E+00  2.31085851E+00
  1.02422524E+00 -3.16354936E+00 -1.82949931E+00  1.36562127E+00 -3.16354936E+00
 -1.82949931E+00  1.36562127E+00 -3.16354936E+00 -1.82949931E+00  1.36562127E+00
 -3.16354936E+00 -1.82949931E+00  1.36562127E+00  1.59421784E+00 -3.88849279E-01
  1.18945276E-01  1.59421784E+00 -3.88849279E-01  1.18945276E-01  1.59421784E+00
 -3.88849279E-01  1.18945276E-01  1.59421784E+00 -3.88849279E-01  1.18945276E-01
  1.59421784E+00 -3.88849279E-01  1.18945276E-01  2.63486537E+00  6.77901409E-02
  2.64351331E+00  2.63486537E+00  6.77901409E-02  2.64351331E+00  2.63486537E+00
  6.77901409E-02  2.64351331E+00  2.63486537E+00  6.77901409E-02  2.64351331E+00
  2.35981167E+00 -2.42704407E+00 -1.33115962E+00  2.35981167E+00 -2.42704407E+00
 -1.33115962E+00  2.35981167E+00 -2.42704407E+00 -1.33115962E+00  2.35981167E+00
 -2.42704407E+00 -1.33115962E+00  2.51308553E+00  2.17595215E+00 -1.52973945E+00
  2.51308553E+00  2.17595215E+00 -1.52973945E+00  2.51308553E+00  2.17595215E+00
 -1.52973945E+00  2.51308553E+00  2.17595215E+00 -1.52973945E+00  3.74703095E+00
  3.54190166E+00 -1.38642027E-01  3.74703095E+00  3.54190166E+00 -1.38642027E-01
Num ILSW                                   I              100
ILSW                                       I   N=         100
           0           1           0           0           2           0
           0           0           0           0         402          -1
           5           0           0           0           0           0
           0           0           1           0           0           0
           1           0           0           0           0           0
           0           0      100000           0          -1           0
           0           0           0           0           0           0
           0           0           0           1           0           0
           0 -2000000000           1           0           0           0
           0           0           4          52           0           0
           0           0           5           0           0           0
           0           0           0           0           0           1
           0           0           0           0           0           0
           0           0           0           0           0           0
           0           0           0           0           0           0
           0           0           0           0           0           0
           0           0           0           0
Num RLSW                                   I               52
RLSW                                       R   N=          52
  8.00000000E-01  7.20000000E-01  1.00000000E+00  8.10000000E-01  2.00000000E-01
  0.00000000E+00  0.00000000E+00  1.00000000E+00  0.00000000E+00  0.00000000E+00
  0.00000000E+00  0.00000000E+00  1.00000000E+00  0.00000000E+00  0.00000000E+00
  0.00000000E+00  0.00000000E+00  1.00000000E+00  0.00000000E+00  0.00000000E+00
  0.00000000E+00  0.00000000E+00  1.00000000E+00  0.00000000E+00  0.00000000E+00
  0.00000000E+00  0.00000000E+00  1.00000000E+00  0.00000000E+00  0.00000000E+00
  0.00000000E+00  0.00000000E+00  1.00000000E+00  0.00000000E+00  0.00000000E+00
  0.00000000E+00  0.00000000E+00  0.00000000E+00  1.00000000E+00  1.00000000E+00
  0.00000000E+00  1.00000000E+00  0.00000000E+00  0.00000000E+00  0.00000000E+00
  0.00000000E+00  0.00000000E+00  0.00000000E+00  0.00000000E+00  0.00000000E+00
  0.00000000E+00  0.00000000E+00
MxBond                                     I                4
NBond                                      I   N=           9
           4           1           1           1           4           1
           1           1           0
IBond                                      I   N=          36
           2           3           4           5           1           0
           0           0           1           0           0           0
           1           0           0           0           1           6
           7           8           5           0           0           0
           5           0           0           0           5           0
           0           0           0           0           0           0
RBond                                      R   N=          36
  1.00000000E+00  1.00000000E+00  1.00000000E+00  1.00000000E+00  1.00000000E+00
  0.00000000E+00  0.00000000E+00  0.00000000E+00  1.00000000E+00  0.00000000E+00
  0.00000000E+00  0.00000000E+00  1.00000000E+00  0.00000000E+00  0.00000000E+00
  0.00000000E+00  1.00000000E+00  2.00000000E+00  2.00000000E+00  1.00000000E+00
  2.00000000E+00  0.00000000E+00  0.00000000E+00  0.00000000E+00  2.00000000E+00
  0.00000000E+00  0.00000000E+00  0.00000000E+00  1.00000000E+00  0.00000000E+00
  0.00000000E+00  0.00000000E+00  0.00000000E+00  0.00000000E+00  0.00000000E+00
  0.00000000E+00
Virial Ratio                               R      2.006399625423162E+00
SCF Energy                                 R     -9.619406926552615E+02
Total Energy                               R     -9.619406926552615E+02
RMS Density                                R      9.989974579602331E-09
Job Status                                 I                1
Nuclear derivative order                   I                0
External E-field                           R   N=          35
  0.00000000E+00  0.00000000E+00  0.00000000E+00  0.00000000E+00  0.00000000E+00
  0.00000000E+00  0.00000000E+00  0.00000000E+00  0.00000000E+00  0.00000000E+00
  0.00000000E+00  0.00000000E+00  0.00000000E+00  0.00000000E+00  0.00000000E+00
  0.00000000E+00  0.00000000E+00  0.00000000E+00  0.00000000E+00  0.00000000E+00
  0.00000000E+00  0.00000000E+00  0.00000000E+00  0.00000000E+00  0.00000000E+00
  0.00000000E+00  0.00000000E+00  0.00000000E+00  0.00000000E+00  0.00000000E+00
  0.00000000E+00  0.00000000E+00  0.00000000E+00  0.00000000E+00  0.00000000E+00
IOpCl                                      I                0
IROHF                                      I                0
Alpha Orbital Energies                     R   N=         126
 -8.91728323E+01 -2.47818824E+01 -2.47626943E+01 -2.47610289E+01 -1.92404879E+01
 -1.92082412E+01 -1.91947598E+01 -1.05007549E+01 -8.19940213E+00 -6.16441404E+00
 -6.16299713E+00 -6.16265514E+00 -1.32632190E+00 -1.25034445E+00 -1.23149577E+00
 -1.19594511E+00 -1.07168557E+00 -1.02744961E+00 -7.93712041E-01 -6.81845968E-01
 -6.16106529E-01 -6.09184621E-01 -5.96329743E-01 -5.49896025E-01 -5.10741319E-01
 -4.95052503E-01 -4.88279149E-01 -4.83484499E-01 -4.63223893E-01 -4.55940254E-01
 -4.47673357E-01 -4.31612477E-01 -4.03156006E-01 -3.85367068E-01 -3.70566274E-01
 -3.57911587E-01 -3.43215190E-01 -6.14058648E-02 -2.76306289E-02  6.36513774E-03
  1.95518158E-02  9.09413571E-02  1.19202239E-01  1.42127006E-01  1.91289362E-01
  2.84540094E-01  3.11525682E-01  3.39308392E-01  3.97615309E-01  4.58716827E-01
  4.94930646E-01  5.17436407E-01  6.45050849E-01  6.68954082E-01  6.90089115E-01
  7.52933123E-01  7.67603468E-01  7.98757027E-01  8.59718306E-01  8.74711397E-01
  9.28492157E-01  9.67385248E-01  9.79234722E-01  9.99376932E-01  1.01282632E+00
  1.03178263E+00  1.08162800E+00  1.09847249E+00  1.10092977E+00  1.12692818E+00
  1.16887854E+00  1.18532770E+00  1.21058387E+00  1.27183664E+00  1.28987597E+00
  1.32372982E+00  1.34589778E+00  1.35012813E+00  1.36006646E+00  1.37948367E+00
  1.52195258E+00  1.55038233E+00  1.57991320E+00  1.60017243E+00  1.68541939E+00
  1.71372527E+00  1.73590670E+00  1.75040032E+00  1.76960027E+00  1.78324553E+00
  1.78911138E+00  1.79734876E+00  1.81493981E+00  1.82394231E+00  1.83261824E+00
  1.86390221E+00  1.90681783E+00  1.92454825E+00  1.94732951E+00  1.97700664E+00
  1.99358752E+00  2.01309841E+00  2.05442289E+00  2.09486417E+00  2.12188722E+00
  2.14221042E+00  2.17806395E+00  2.18404620E+00  2.29017158E+00  2.39435748E+00
  2.59186886E+00  2.62281369E+00  2.63920181E+00  2.73047557E+00  2.81496922E+00
  2.86082561E+00  3.00478744E+00  3.02327634E+00  3.55128601E+00  3.84163865E+00
  3.86208029E+00  3.93853771E+00  4.25492559E+00  4.30037779E+00  4.34347872E+00
  5.07031715E+00
Alpha MO coefficients                      R   N=       15876
 -2.51627283E-05 -6.69785562E-05  5.03733413E-05 -1.34494364E-06  4.00817847E-06
  8.18563112E-04  3.79715518E-04 -1.10112508E-04 -2.76629231E-05 -4.57339055E-05
 -4.67159805E-06 -3.93786916E-06  1.68261148E-05  3.10905134E-08  1.43329827E-06
  1.88590160E-05  1.14246800E-04  1.15430076E-05 -4.79221115E-06 -3.63917119E-06
 -4.23507310E-04 -1.33835101E-04  2.48427261E-05 -6.31022854E-05  6.30263675E-05
  5.43931427E-05  7.18315433E-05 -1.82625116E-06 -2.96889580E-05  9.98950974E-06
  1.46346922E-05  8.91146357E-05  1.50553851E-05  3.67370077E-06  2.82042069E-06
 -3.17525509E-04 -1.34295855E-04  4.60708230E-05  1.08120784E-05  4.50991803E-05
  5.60519362E-05  4.53908342E-05  2.99807883E-05  1.40272539E-05  1.07671134E-05
  2.12116683E-05  1.26832639E-04  1.43357351E-05 -6.66433072E-06  9.55943532E-07
 -4.57672610E-04 -1.53092300E-04 -2.29428373E-05  3.94294595E-05  6.30829876E-05
  8.61332420E-05  6.85450748E-05 -2.18260356E-05  1.72637844E-05 -1.09015701E-05
  9.96122582E-01  1.48655661E-02 -1.35272762E-05  1.96894510E-05 -1.46126643E-05
 -2.41315511E-02  8.56972420E-05 -6.33227251E-05  2.95886097E-05  1.51268069E-03
 -2.42466858E-05 -4.43547681E-05  7.49543429E-05  8.49147871E-03  8.57871821E-03
  8.61588284E-03 -1.36609607E-05  7.05946054E-06  4.96001800E-05  1.47180942E-05
  2.65286742E-06  3.44561273E-05  2.17364626E-05  1.13026039E-04  4.03553708E-04
 -6.79582642E-05 -4.79560386E-05 -2.88021822E-04  6.89259628E-06  4.92409884E-05
 -1.66384530E-04 -1.82973732E-05 -1.17550525E-04 -4.45701958E-05  1.26083017E-05
 -4.85163142E-05  4.21259449E-05 -1.45032779E-04 -1.02863888E-04  4.87348819E-04
 -4.71791842E-05  2.63368137E-04  1.74239715E-04  2.89893853E-05 -9.60480441E-05
 -1.60642597E-05  7.87354319E-05  5.37715089E-05 -1.30209113E-04 -1.50867889E-05
 -2.04164795E-05 -2.50579848E-05 -2.27031816E-05 -3.98623832E-06  5.59589895E-04
 -1.26144081E-05 -2.15096073E-04  2.11375063E-04 -5.50921231E-05 -1.04375775E-04
 -6.32450172E-05 -1.96912908E-05  3.44815040E-05  6.49789250E-05 -6.07128922E-05
 -8.27109656E-05 -3.20957108E-05  4.47022439E-05 -3.04727557E-04  5.59515049E-04
  2.35137191E-04  3.88784322E-04  5.00278915E-04 -1.44889109E-04  2.32547678E-05
  6.33945479E-05  3.94604595E-04  9.18888431E-05 -1.77185457E-04 -8.57616846E-05
  1.87984839E-04  4.89041621E-05  5.85392444E-05  1.56286449E-06  1.31481481E-05
  1.77358982E-05 -3.37072476E-05 -2.13700929E-05 -9.11114818E-05 -1.08086163E-04
  4.01731217E-05 -3.37096193E-05 -6.24240351E-05  1.02868299E-05 -2.14014016E-05
 -8.93743851E-05  9.93012797E-01  1.97303069E-02  2.69588989E-04 -6.64473670E-04
 -2.91826365E-04  1.47180102E-02 -1.59904495E-04  4.77993076E-04  2.03241875E-04
 -7.96904098E-03 -8.31479490E-03 -8.02160271E-03  1.69082790E-04  7.69197665E-05
 -1.81168936E-04  4.59691706E-05  9.21852225E-05  6.11022493E-06  2.23636939E-05
  7.79103689E-09 -1.56749306E-04 -5.00719400E-05 -1.58581839E-04 -4.75934791E-06
  5.32758164E-05 -1.04740571E-04  6.09761526E-05 -2.52041175E-05  2.10436929E-05
 -2.72944392E-06  3.19368502E-06  5.50721577E-05  6.25094538E-06  6.57507757E-08
  1.08662921E-06  2.27906423E-04 -8.89957213E-05  2.31419643E-05 -3.07601648E-05
 -1.47772438E-03  4.60540959E-04 -7.58236304E-04 -2.67028362E-04  3.13138451E-05
  4.54475812E-05  1.81087926E-05 -1.12167158E-05 -2.83072242E-06 -1.06603126E-06
 -4.25285525E-05 -1.89252472E-04  2.49373507E-05 -2.01312867E-05  1.57281970E-05
  9.69499694E-04 -2.07087348E-04  1.22247154E-04 -2.01298055E-04 -1.10719441E-04
 -1.30925154E-04 -1.17146469E-04 -1.04027103E-05  2.42948665E-05 -2.42318398E-05
  1.29317731E-05  4.51179087E-05  9.77319416E-06 -9.56052485E-06  6.97516983E-06
 -2.48241292E-04 -4.42592337E-05  5.61027359E-05 -3.35166298E-05  3.77868527E-05
  4.91337453E-05  3.61157338E-05 -1.87776246E-06  2.81605035E-06 -4.25495589E-06
 -2.86237667E-05 -1.42906727E-04  9.94219346E-06  1.60888930E-05 -1.27942617E-05
  7.20624836E-04 -1.46834572E-04 -1.47530395E-04  1.69618287E-04 -7.37331228E-05
 -9.10818168E-05 -5.55891250E-05  1.22864660E-05 -1.74512848E-05 -8.61346575E-06
 -2.56591824E-05  1.09994155E-04 -3.11853486E-05 -1.08359262E-04 -2.88924927E-04
 -1.13017327E-05 -5.10027052E-04  2.67927098E-04  4.52261807E-04 -1.17981586E-04
 -2.38980983E-05  1.24844114E-04  5.17480697E-05  5.46096477E-04  2.43942696E-05
  2.60303118E-04  3.79748256E-05  9.93022818E-01  1.97288057E-02  2.79597871E-04
  5.06752282E-05  6.61492787E-04  1.46563862E-02 -1.51233543E-04 -2.85693767E-05
 -4.63975522E-04 -7.96556988E-03 -7.93983878E-03 -8.32437494E-03 -1.65015578E-05
 -1.94705442E-04 -2.60773664E-05 -5.20546333E-05  3.72819327E-05  2.30961901E-07
 -1.19648641E-05 -2.24441947E-05  5.73355912E-05 -5.14460983E-06  4.98825734E-05
  1.34760573E-04  2.95973926E-05 -1.77060158E-05 -9.83292445E-05  2.01426394E-05
 -1.79422005E-05 -7.84092860E-05  4.20379967E-04  7.96797033E-05  3.30501815E-06
  5.15705629E-06 -2.45553781E-05 -7.54677043E-05 -2.32233939E-05 -2.22721574E-05
  1.61404002E-04  4.00252954E-05  3.75015520E-05 -1.04748847E-04 -2.11131964E-05
  4.74278787E-06  5.96232779E-05  2.67316033E-06  4.90302321E-05  7.06131247E-06
 -5.68568602E-07 -3.61052187E-06  1.91496241E-04 -9.34614494E-05  3.55106286E-05
  1.97395110E-05 -1.33954742E-03  5.21697871E-04 -5.29606975E-05  7.82211484E-04
  3.51715133E-05  3.61135232E-05  3.71421652E-05 -1.01742185E-05  5.48317024E-06
 -7.31726909E-06  1.75078397E-05  6.52319753E-05  1.05821509E-05 -9.42185988E-06
 -1.69482634E-06 -3.54139447E-04 -3.93625508E-05  4.88376732E-05  5.23473894E-06
  5.40631831E-05  5.29421339E-05  5.58906720E-05 -3.09318793E-06  1.63334394E-06
 -6.62171887E-06 -3.88663089E-05 -1.79211534E-04  1.46928524E-05 -1.89333360E-05
  1.33727091E-05  9.45549143E-04 -1.75495812E-04  2.20866467E-04 -4.47523800E-05
 -1.00661447E-04 -8.99429304E-05 -1.29628753E-04 -1.99854778E-05 -3.27044457E-06
 -1.65832236E-05 -3.43587334E-05 -1.56586883E-04  9.80586958E-06  2.19518996E-05
  3.14068957E-06  7.84039807E-04 -1.38235620E-04 -2.15894140E-04  1.05981059E-05
 -9.28718992E-05 -7.95969668E-05 -1.12831184E-04  2.50643549E-05 -4.74062458E-06
  1.10163265E-05 -7.24456004E-06  7.01749107E-06 -2.40352410E-05 -1.09386608E-04
 -3.38065534E-04 -3.68688790E-04  2.70498444E-04  6.77666187E-05  3.93914116E-04
  4.57174270E-05 -6.58512459E-05  2.06417668E-04  3.61750574E-04  2.04457681E-04
  2.64156259E-04 -1.84526959E-04 -2.29174988E-04 -4.17149543E-04  4.65915574E-05
 -5.08563303E-06 -1.19107092E-05  1.96554863E-05 -3.26991249E-05  2.12293341E-05
  8.33999616E-05 -1.15236493E-04  3.76811492E-05  9.61765306E-08 -7.83457435E-05
 -2.71199731E-05  6.94245206E-06  8.04296785E-05 -3.83526304E-05  6.41384903E-05
 -2.71446429E-06 -2.38193151E-05  2.18350990E-06 -4.49058810E-05  9.53113115E-06
  1.42609432E-04 -2.82568896E-05  3.91412228E-05 -1.12318148E-04  3.57741140E-05
 -1.65203617E-05  2.94497056E-05  2.52524197E-05  9.93022069E-01  1.97082328E-02
  3.70947968E-04  4.97532031E-04 -3.36171081E-04  1.47511929E-02 -2.05196734E-04
 -3.18163051E-04  2.14321578E-04 -8.02573669E-03 -8.16192153E-03 -8.04605467E-03
 -1.90690585E-04  1.29593278E-04  1.78961802E-04  1.19787022E-06  2.78558571E-05
  9.08585923E-06 -1.40209618E-06 -4.03625445E-07  8.92672808E-05 -1.18593025E-04
  2.29872164E-05  6.81543177E-06 -1.05355862E-03  4.93073359E-04  2.16886826E-04
 -1.42384723E-04  2.25371870E-05  3.82170665E-05  2.18830360E-05 -2.64791267E-06
 -4.68684309E-06 -2.61299271E-05 -2.67927451E-05 -1.14268726E-04  2.98560596E-05
  1.48206866E-05  5.86361393E-06  5.48836786E-04 -1.79242869E-04 -8.82339023E-05
 -9.38525002E-05 -7.17407711E-05 -7.93835758E-05 -8.25049016E-05  1.22511933E-05
  2.13205071E-05  8.91725897E-06 -2.97568902E-05 -1.28602790E-04  2.96478576E-05
  7.93815548E-07 -1.78350344E-05  6.31373945E-04 -1.81475018E-04  6.36225817E-05
  1.40204854E-04 -8.37300279E-05 -9.33049698E-05 -7.95951471E-05 -1.58971129E-05
 -1.98079390E-05  7.28890937E-06  2.44111914E-07 -8.50457733E-08  1.24702901E-05
 -4.32739564E-06  1.44517185E-06  1.21441012E-05 -6.60810570E-05 -2.15475617E-06
  7.00074692E-06  3.35688525E-06 -7.75815160E-07  2.76545959E-06  8.21757380E-06
 -4.88428888E-06  3.25317274E-06  4.96461923E-06 -1.52964065E-05 -2.46608328E-05
 -1.58936669E-04  3.18982239E-05  3.97631980E-06  1.67033500E-05  1.05402439E-03
  4.79782309E-04 -6.38614036E-04 -4.73431257E-05  5.02819991E-05 -2.69944495E-05
 -1.57646609E-05  3.48091790E-05 -1.46697327E-05 -3.04697944E-05 -3.60333061E-05
 -1.88498116E-04 -3.55377663E-05 -1.10039483E-05 -9.43423979E-07  5.33583502E-04
  1.18468673E-04  1.00505470E-04 -1.67665546E-05 -1.02094958E-04 -1.73484882E-04
 -1.63283962E-04  9.06750073E-06 -5.71342460E-06  3.03846956E-05 -4.80543175E-05
 -2.74951170E-04 -1.56945144E-05  1.10273467E-05  6.83540291E-06  9.49163434E-04
  9.57021611E-05 -8.84270871E-05 -8.71870545E-05 -1.57800134E-04 -1.88989951E-04
 -1.93616278E-04 -4.78235759E-06 -1.27847931E-05  1.63961675E-05  4.51055361E-05
  2.54067384E-04  3.32189756E-05  6.63735453E-06 -1.79337269E-05 -9.03577199E-04