PFMS Time step 40                                                       
SP        RB3LYP                                                      6-31G(d)            
Number of atoms                            I                9
Info1-9                                    I   N=           9
          18          18           0           0           0         110
           1          18        -502
Full Title                                 C   N=           2
PFMS Time step 40       
Route                                      C   N=           4
# B3LYP/6-31G(d) pop=full density=current       
Charge                                     I                0
Multiplicity                               I                1
Number of electrons                        I               74
Number of alpha electrons                  I               37
Number of beta electrons                   I               37
Number of basis functions                  I              126
Number of independent functions            I              126
Number of point charges in /Mol/           I                0
Number of translation vectors              I                0
Atomic numbers                             I   N=           9
           6           9           9           9          16           8
           8           8           1
Nuclear charges                            R   N=           9
  6.00000000E+00  9.00000000E+00  9.00000000E+00  9.00000000E+00  1.60000000E+01
  8.00000000E+00  8.00000000E+00  8.00000000E+00  1.00000000E+00
Current cartesian coordinates              R   N=          27
  1.85790631E+00  1.20709806E-01 -7.12676574E-02  2.82887537E+00  2.78633649E-01
  2.42302254E+00  2.69469592E+00  2.15908149E+00 -1.35627084E+00  3.20227489E+00
 -2.00112956E+00 -1.08472917E+00 -1.59615084E+00 -4.33643489E-01 -6.83792874E-02
 -2.66508553E+00 -3.52500500E-01 -2.62925475E+00 -2.31549384E+00 -2.18732654E+00
  1.66354500E+00 -2.56750171E+00  2.38379270E+00  1.22125380E+00 -3.75699152E+00
  3.53304145E+00 -3.60880635E-01
Number of symbols in /Mol/                 I                0
Int Atom Types                             I   N=           9
           0           0           0           0           0           0
           0           0           0
Force Field                                I                0
Atom Types                                 C   N=           9
                                                            
                                                
MM charges                                 R   N=           9
  0.00000000E+00  0.00000000E+00  0.00000000E+00  0.00000000E+00  0.00000000E+00
  0.00000000E+00  0.00000000E+00  0.00000000E+00  0.00000000E+00
Integer atomic weights                     I   N=           9
          12          19          19          19          32          16
          16          16           1
Real atomic weights                        R   N=           9
  1.20000000E+01  1.89984032E+01  1.89984032E+01  1.89984032E+01  3.19720718E+01
  1.59949146E+01  1.59949146E+01  1.59949146E+01  1.00782504E+00
Atom fragment info                         I   N=           9
           0           0           0           0           0           0
           0           0           0
Atom residue num                           I   N=           9
           0           0           0           0           0           0
           0           0           0
Nuclear spins                              I   N=           9
           0           1           1           1           0           0
           0           0           1
Nuclear ZEff                               R   N=           9
 -3.60000000E+00 -6.75000000E+00 -6.75000000E+00 -6.75000000E+00 -1.36000000E+01
 -5.60000000E+00 -5.60000000E+00 -5.60000000E+00 -1.00000000E+00
Nuclear ZNuc                               R   N=           9
  6.00000000E+00  9.00000000E+00  9.00000000E+00  9.00000000E+00  1.60000000E+01
  8.00000000E+00  8.00000000E+00  8.00000000E+00  1.00000000E+00
Nuclear QMom                               R   N=           9
  0.00000000E+00  0.00000000E+00  0.00000000E+00  0.00000000E+00  0.00000000E+00
  0.00000000E+00  0.00000000E+00  0.00000000E+00  0.00000000E+00
Nuclear GFac                               R   N=           9
  0.00000000E+00  2.62886700E+00  2.62886700E+00  2.62886700E+00  0.00000000E+00
  0.00000000E+00  0.00000000E+00  0.00000000E+00  2.79284600E+00
MicOpt                                     I   N=           9
          -1          -1          -1          -1          -1          -1
          -1          -1          -1
Number of residues                         I                0
Number of secondary structures             I                0
SymInf integers                            I   N=          26
           1           1           1           1           1           0
           0           0           0           0           0           0
           0           0           0           0           0           0
           0           0           0           0           0           0
           0           0
RotTr to input orientation                 R   N=          12
 -9.60376128E-01 -4.51561124E-02 -2.75024758E-01 -5.76569621E-02  9.97630565E-01
  3.75357194E-02  2.72678137E-01  5.19055009E-02 -9.60704144E-01  7.84019534E-02
  2.39877238E-02  2.59136101E-02
Number of contracted shells                I               35
Number of primitive shells                 I               98
Pure/Cartesian d shells                    I                1
Pure/Cartesian f shells                    I                0
Highest angular momentum                   I                2
Largest degree of contraction              I                6
Shell types                                I   N=          35
           0          -1          -1           2           0          -1
          -1           2           0          -1          -1           2
           0          -1          -1           2           0          -1
          -1          -1           2           0          -1          -1
           2           0          -1          -1           2           0
          -1          -1           2           0           0
Number of primitives per shell             I   N=          35
           6           3           1           1           6           3
           1           1           6           3           1           1
           6           3           1           1           6           6
           3           1           1           6           3           1
           1           6           3           1           1           6
           3           1           1           3           1
Shell to atom map                          I   N=          35
           1           1           1           1           2           2
           2           2           3           3           3           3
           4           4           4           4           5           5
           5           5           5           6           6           6
           6           7           7           7           7           8
           8           8           8           9           9
Primitive exponents                        R   N=          98
  3.04752488E+03  4.57369518E+02  1.03948685E+02  2.92101553E+01  9.28666296E+00
  3.16392696E+00  7.86827235E+00  1.88128854E+00  5.44249258E-01  1.68714478E-01
  8.00000000E-01  7.00171309E+03  1.05136609E+03  2.39285690E+02  6.73974453E+01
  2.15199573E+01  7.40310130E+00  2.08479528E+01  4.80830834E+00  1.34406986E+00
  3.58151393E-01  8.00000000E-01  7.00171309E+03  1.05136609E+03  2.39285690E+02
  6.73974453E+01  2.15199573E+01  7.40310130E+00  2.08479528E+01  4.80830834E+00
  1.34406986E+00  3.58151393E-01  8.00000000E-01  7.00171309E+03  1.05136609E+03
  2.39285690E+02  6.73974453E+01  2.15199573E+01  7.40310130E+00  2.08479528E+01
  4.80830834E+00  1.34406986E+00  3.58151393E-01  8.00000000E-01  2.19171000E+04
  3.30149000E+03  7.54146000E+02  2.12711000E+02  6.79896000E+01  2.30515000E+01
  4.23735000E+02  1.00710000E+02  3.21599000E+01  1.18079000E+01  4.63110000E+00
  1.87025000E+00  2.61584000E+00  9.22167000E-01  3.41287000E-01  1.17167000E-01
  6.50000000E-01  5.48467166E+03  8.25234946E+02  1.88046958E+02  5.29645000E+01
  1.68975704E+01  5.79963534E+00  1.55396162E+01  3.59993359E+00  1.01376175E+00
  2.70005823E-01  8.00000000E-01  5.48467166E+03  8.25234946E+02  1.88046958E+02
  5.29645000E+01  1.68975704E+01  5.79963534E+00  1.55396162E+01  3.59993359E+00
  1.01376175E+00  2.70005823E-01  8.00000000E-01  5.48467166E+03  8.25234946E+02
  1.88046958E+02  5.29645000E+01  1.68975704E+01  5.79963534E+00  1.55396162E+01
  3.59993359E+00  1.01376175E+00  2.70005823E-01  8.00000000E-01  1.87311370E+01
  2.82539436E+00  6.40121692E-01  1.61277759E-01
Contraction coefficients                   R   N=          98
  1.83473713E-03  1.40373228E-02  6.88426223E-02  2.32184443E-01  4.67941348E-01
  3.62311985E-01 -1.19332420E-01 -1.60854152E-01  1.14345644E+00  1.00000000E+00
  1.00000000E+00  1.81961690E-03  1.39160796E-02  6.84053245E-02  2.33185760E-01
  4.71267439E-01  3.56618546E-01 -1.08506975E-01 -1.46451658E-01  1.12868858E+00
  1.00000000E+00  1.00000000E+00  1.81961690E-03  1.39160796E-02  6.84053245E-02
  2.33185760E-01  4.71267439E-01  3.56618546E-01 -1.08506975E-01 -1.46451658E-01
  1.12868858E+00  1.00000000E+00  1.00000000E+00  1.81961690E-03  1.39160796E-02
  6.84053245E-02  2.33185760E-01  4.71267439E-01  3.56618546E-01 -1.08506975E-01
 -1.46451658E-01  1.12868858E+00  1.00000000E+00  1.00000000E+00  1.86924085E-03
  1.42303065E-02  6.96962317E-02  2.38487108E-01  4.83307220E-01  3.38074154E-01
 -2.37677050E-03 -3.16930067E-02 -1.13317024E-01  5.60900118E-02  5.92255124E-01
  4.55006095E-01 -2.50373114E-01  6.69567631E-02  1.05450627E+00  1.00000000E+00
  1.00000000E+00  1.83107443E-03  1.39501722E-02  6.84450781E-02  2.32714336E-01
  4.70192898E-01  3.58520853E-01 -1.10777550E-01 -1.48026263E-01  1.13076702E+00
  1.00000000E+00  1.00000000E+00  1.83107443E-03  1.39501722E-02  6.84450781E-02
  2.32714336E-01  4.70192898E-01  3.58520853E-01 -1.10777550E-01 -1.48026263E-01
  1.13076702E+00  1.00000000E+00  1.00000000E+00  1.83107443E-03  1.39501722E-02
  6.84450781E-02  2.32714336E-01  4.70192898E-01  3.58520853E-01 -1.10777550E-01
 -1.48026263E-01  1.13076702E+00  1.00000000E+00  1.00000000E+00  3.34946043E-02
  2.34726953E-01  8.13757326E-01  1.00000000E+00
P(S=P) Contraction coefficients            R   N=          98
  0.00000000E+00  0.00000000E+00  0.00000000E+00  0.00000000E+00  0.00000000E+00
  0.00000000E+00  6.89990666E-02  3.16423961E-01  7.44308291E-01  1.00000000E+00
  0.00000000E+00  0.00000000E+00  0.00000000E+00  0.00000000E+00  0.00000000E+00
  0.00000000E+00  0.00000000E+00  7.16287242E-02  3.45912103E-01  7.22469956E-01
  1.00000000E+00  0.00000000E+00  0.00000000E+00  0.00000000E+00  0.00000000E+00
  0.00000000E+00  0.00000000E+00  0.00000000E+00  7.16287242E-02  3.45912103E-01
  7.22469956E-01  1.00000000E+00  0.00000000E+00  0.00000000E+00  0.00000000E+00
  0.00000000E+00  0.00000000E+00  0.00000000E+00  0.00000000E+00  7.16287242E-02
  3.45912103E-01  7.22469956E-01  1.00000000E+00  0.00000000E+00  0.00000000E+00
  0.00000000E+00  0.00000000E+00  0.00000000E+00  0.00000000E+00  0.00000000E+00
  4.06100998E-03  3.06812999E-02  1.30451999E-01  3.27204999E-01  4.52850998E-01
  2.56041999E-01 -1.45104895E-02  3.10262776E-01  7.54482456E-01  1.00000000E+00
  0.00000000E+00  0.00000000E+00  0.00000000E+00  0.00000000E+00  0.00000000E+00
  0.00000000E+00  0.00000000E+00  7.08742682E-02  3.39752839E-01  7.27158577E-01
  1.00000000E+00  0.00000000E+00  0.00000000E+00  0.00000000E+00  0.00000000E+00
  0.00000000E+00  0.00000000E+00  0.00000000E+00  7.08742682E-02  3.39752839E-01
  7.27158577E-01  1.00000000E+00  0.00000000E+00  0.00000000E+00  0.00000000E+00
  0.00000000E+00  0.00000000E+00  0.00000000E+00  0.00000000E+00  7.08742682E-02
  3.39752839E-01  7.27158577E-01  1.00000000E+00  0.00000000E+00  0.00000000E+00
  0.00000000E+00  0.00000000E+00  0.00000000E+00
Coordinates of each shell                  R   N=         105
  1.85790631E+00  1.20709806E-01 -7.12676574E-02  1.85790631E+00  1.20709806E-01
 -7.12676574E-02  1.85790631E+00  1.20709806E-01 -7.12676574E-02  1.85790631E+00
  1.20709806E-01 -7.12676574E-02  2.82887537E+00  2.78633649E-01  2.42302254E+00
  2.82887537E+00  2.78633649E-01  2.42302254E+00  2.82887537E+00  2.78633649E-01
  2.42302254E+00  2.82887537E+00  2.78633649E-01  2.42302254E+00  2.69469592E+00
  2.15908149E+00 -1.35627084E+00  2.69469592E+00  2.15908149E+00 -1.35627084E+00
  2.69469592E+00  2.15908149E+00 -1.35627084E+00  2.69469592E+00  2.15908149E+00
 -1.35627084E+00  3.20227489E+00 -2.00112956E+00 -1.08472917E+00  3.20227489E+00
 -2.00112956E+00 -1.08472917E+00  3.20227489E+00 -2.00112956E+00 -1.08472917E+00
  3.20227489E+00 -2.00112956E+00 -1.08472917E+00 -1.59615084E+00 -4.33643489E-01
 -6.83792874E-02 -1.59615084E+00 -4.33643489E-01 -6.83792874E-02 -1.59615084E+00
 -4.33643489E-01 -6.83792874E-02 -1.59615084E+00 -4.33643489E-01 -6.83792874E-02
 -1.59615084E+00 -4.33643489E-01 -6.83792874E-02 -2.66508553E+00 -3.52500500E-01
 -2.62925475E+00 -2.66508553E+00 -3.52500500E-01 -2.62925475E+00 -2.66508553E+00
 -3.52500500E-01 -2.62925475E+00 -2.66508553E+00 -3.52500500E-01 -2.62925475E+00
 -2.31549384E+00 -2.18732654E+00  1.66354500E+00 -2.31549384E+00 -2.18732654E+00
  1.66354500E+00 -2.31549384E+00 -2.18732654E+00  1.66354500E+00 -2.31549384E+00
 -2.18732654E+00  1.66354500E+00 -2.56750171E+00  2.38379270E+00  1.22125380E+00
 -2.56750171E+00  2.38379270E+00  1.22125380E+00 -2.56750171E+00  2.38379270E+00
  1.22125380E+00 -2.56750171E+00  2.38379270E+00  1.22125380E+00 -3.75699152E+00
  3.53304145E+00 -3.60880635E-01 -3.75699152E+00  3.53304145E+00 -3.60880635E-01
Num ILSW                                   I              100
ILSW                                       I   N=         100
           0           1           0           0           2           0
           0           0           0           0         402          -1
           5           0           0           0           0           0
           0           0           1           0           0           0
           1           0           0           0           0           0
           0           0      100000           0          -1           0
           0           0           0           0           0           0
           0           0           0           1           0           0
           0 -2000000000           1           0           0           0
           0           0           4          52           0           0
           0           0           5           0           0           0
           0           0           0           0           0           1
           0           0           0           0           0           0
           0           0           0           0           0           0
           0           0           0           0           0           0
           0           0           0           0           0           0
           0           0           0           0
Num RLSW                                   I               52
RLSW                                       R   N=          52
  8.00000000E-01  7.20000000E-01  1.00000000E+00  8.10000000E-01  2.00000000E-01
  0.00000000E+00  0.00000000E+00  1.00000000E+00  0.00000000E+00  0.00000000E+00
  0.00000000E+00  0.00000000E+00  1.00000000E+00  0.00000000E+00  0.00000000E+00
  0.00000000E+00  0.00000000E+00  1.00000000E+00  0.00000000E+00  0.00000000E+00
  0.00000000E+00  0.00000000E+00  1.00000000E+00  0.00000000E+00  0.00000000E+00
  0.00000000E+00  0.00000000E+00  1.00000000E+00  0.00000000E+00  0.00000000E+00
  0.00000000E+00  0.00000000E+00  1.00000000E+00  0.00000000E+00  0.00000000E+00
  0.00000000E+00  0.00000000E+00  0.00000000E+00  1.00000000E+00  1.00000000E+00
  0.00000000E+00  1.00000000E+00  0.00000000E+00  0.00000000E+00  0.00000000E+00
  0.00000000E+00  0.00000000E+00  0.00000000E+00  0.00000000E+00  0.00000000E+00
  0.00000000E+00  0.00000000E+00
MxBond                                     I                4
NBond                                      I   N=           9
           4           1           1           1           4           1
           1           1           0
IBond                                      I   N=          36
           2           3           4           5           1           0
           0           0           1           0           0           0
           1           0           0           0           1           6
           7           8           5           0           0           0
           5           0           0           0           5           0
           0           0           0           0           0           0
RBond                                      R   N=          36
  1.00000000E+00  1.00000000E+00  1.00000000E+00  1.00000000E+00  1.00000000E+00
  0.00000000E+00  0.00000000E+00  0.00000000E+00  1.00000000E+00  0.00000000E+00
  0.00000000E+00  0.00000000E+00  1.00000000E+00  0.00000000E+00  0.00000000E+00
  0.00000000E+00  1.00000000E+00  2.00000000E+00  3.00000000E+00  1.00000000E+00
  2.00000000E+00  0.00000000E+00  0.00000000E+00  0.00000000E+00  3.00000000E+00
  0.00000000E+00  0.00000000E+00  0.00000000E+00  1.00000000E+00  0.00000000E+00
  0.00000000E+00  0.00000000E+00  0.00000000E+00  0.00000000E+00  0.00000000E+00
  0.00000000E+00
Virial Ratio                               R      2.006367955676707E+00
SCF Energy                                 R     -9.619303502214150E+02
Total Energy                               R     -9.619303502214150E+02
RMS Density                                R      4.582714657413532E-09
Job Status                                 I                1
Nuclear derivative order                   I                0
External E-field                           R   N=          35
  0.00000000E+00  0.00000000E+00  0.00000000E+00  0.00000000E+00  0.00000000E+00
  0.00000000E+00  0.00000000E+00  0.00000000E+00  0.00000000E+00  0.00000000E+00
  0.00000000E+00  0.00000000E+00  0.00000000E+00  0.00000000E+00  0.00000000E+00
  0.00000000E+00  0.00000000E+00  0.00000000E+00  0.00000000E+00  0.00000000E+00
  0.00000000E+00  0.00000000E+00  0.00000000E+00  0.00000000E+00  0.00000000E+00
  0.00000000E+00  0.00000000E+00  0.00000000E+00  0.00000000E+00  0.00000000E+00
  0.00000000E+00  0.00000000E+00  0.00000000E+00  0.00000000E+00  0.00000000E+00
IOpCl                                      I                0
IROHF                                      I                0
Alpha Orbital Energies                     R   N=         126
 -8.91728127E+01 -2.47881549E+01 -2.47600580E+01 -2.47563735E+01 -1.92354422E+01
 -1.92134489E+01 -1.91972689E+01 -1.05021392E+01 -8.20040448E+00 -6.16517102E+00
 -6.16414710E+00 -6.16350235E+00 -1.32595768E+00 -1.24901385E+00 -1.22330696E+00
 -1.20683752E+00 -1.07557499E+00 -1.01868455E+00 -7.93734376E-01 -6.81206834E-01
 -6.15611925E-01 -6.06037496E-01 -5.93650317E-01 -5.52483684E-01 -5.12808455E-01
 -4.98638291E-01 -4.87422525E-01 -4.80217220E-01 -4.62303803E-01 -4.55352596E-01
 -4.44340425E-01 -4.28334726E-01 -4.05703051E-01 -3.91557040E-01 -3.69701864E-01
 -3.56158958E-01 -3.45033641E-01 -5.68451115E-02 -3.36180324E-02 -4.41980232E-05
  1.76043620E-02  8.38107212E-02  1.13165054E-01  1.34668070E-01  1.92805497E-01
  2.84868298E-01  3.10884621E-01  3.37554592E-01  4.03501429E-01  4.57032809E-01
  4.97575136E-01  5.18789581E-01  6.49325752E-01  6.69992308E-01  6.89700548E-01
  7.48462157E-01  7.57086127E-01  7.97743928E-01  8.60108346E-01  8.72607029E-01
  9.27201139E-01  9.66538982E-01  9.72619246E-01  9.97983905E-01  1.01150918E+00
  1.03818205E+00  1.07926039E+00  1.09349732E+00  1.10029908E+00  1.13210341E+00
  1.16917314E+00  1.18482514E+00  1.23361698E+00  1.26980312E+00  1.28800595E+00
  1.32420473E+00  1.34651653E+00  1.35324877E+00  1.35836470E+00  1.38031241E+00
  1.52541887E+00  1.54870341E+00  1.57125679E+00  1.60224900E+00  1.68757520E+00
  1.70952774E+00  1.73080858E+00  1.74833244E+00  1.76686372E+00  1.78324889E+00
  1.78751268E+00  1.79721952E+00  1.81226016E+00  1.82615377E+00  1.83099157E+00
  1.86341782E+00  1.90193786E+00  1.91822051E+00  1.94238253E+00  1.96944796E+00
  1.98727998E+00  2.00837922E+00  2.05834946E+00  2.09096567E+00  2.10570938E+00
  2.14316619E+00  2.16716779E+00  2.18525364E+00  2.29389049E+00  2.36382047E+00
  2.56332427E+00  2.61254576E+00  2.64165198E+00  2.72517941E+00  2.81843671E+00
  2.85058584E+00  3.00119324E+00  3.02668734E+00  3.54439357E+00  3.84870976E+00
  3.85642260E+00  3.94058943E+00  4.22421080E+00  4.28050304E+00  4.34475182E+00
  5.05492905E+00
Alpha MO coefficients                      R   N=       15876
 -2.49753904E-05 -6.90393506E-05 -5.10766375E-05 -6.05269449E-07 -5.05447631E-06
  7.91408214E-04 -3.65954417E-04 -1.34072312E-04  5.91843435E-05 -3.98052762E-05
 -4.71506792E-06 -2.77854438E-06 -1.96325879E-05  3.88336434E-06 -2.70074520E-06
  1.96909976E-05  1.19065519E-04 -1.18930918E-05 -5.24138543E-06  3.52866440E-06
 -4.38137088E-04  1.32697073E-04  3.92165678E-05  6.28098119E-05  6.64317939E-05
  5.67140829E-05  7.58919051E-05 -2.78756245E-06 -2.94423849E-05 -9.05945187E-06
  1.35109967E-05  8.31156320E-05 -1.66788668E-05  2.58046259E-06 -3.29807027E-06
 -2.85586907E-04  1.34686318E-04  4.04958289E-05 -1.33882326E-05  3.81055473E-05
  5.06549765E-05  4.71651927E-05 -2.91905523E-05  1.86503019E-05 -1.18629412E-05
  2.22089447E-05  1.32773860E-04 -1.53654902E-05 -6.40980196E-06  1.11884100E-06
 -4.73957970E-04  1.54654832E-04 -2.85507248E-05 -4.05237570E-05  6.55985556E-05
  9.36371920E-05  7.06276858E-05  2.39021193E-05  1.46398348E-05  5.33609219E-06
  9.96122250E-01  1.48649322E-02  1.35561726E-05  1.97684813E-05  1.26006013E-05
 -2.41269238E-02 -8.29977995E-05 -6.57627885E-05 -2.39843147E-05  1.54281086E-03
  3.34158217E-05 -4.58517478E-05 -7.47960823E-05  8.48489902E-03  8.55841085E-03
  8.62260735E-03  1.58134235E-05  5.35515900E-06 -4.77596948E-05  1.48545998E-05
  5.49444873E-06 -3.47175786E-05  5.05956819E-06 -1.12206526E-04  3.91233902E-04
  6.92610138E-05 -6.86168397E-06  2.90068506E-04  4.53250594E-06  5.57538064E-05
 -1.69736760E-04  3.47362346E-07 -1.21184131E-04  6.23186499E-06  1.12683068E-05
 -6.38148511E-05 -4.39187319E-05 -1.38468546E-04  1.36942814E-04  4.95062751E-04
  4.00904225E-05  2.34231377E-04 -2.17865136E-04  3.43562063E-05 -5.01364072E-05
 -4.55841866E-05 -6.48482931E-05  6.08399066E-05  1.32592696E-04 -1.68095628E-05
 -2.39544943E-05  2.72845035E-05 -3.08007113E-05  3.19232802E-06  5.30511448E-04
  1.81696435E-05 -2.38641881E-04 -1.77617329E-04 -5.80611758E-05 -9.92664042E-05
 -4.79841123E-05  1.53316444E-05  2.68604613E-05 -4.19406827E-05 -5.94467418E-05
 -8.32458191E-05 -3.13491654E-05  7.47978287E-05  3.12234676E-04  5.31611324E-04
 -3.19183583E-04  3.83643716E-04 -4.84286938E-04 -2.03836950E-04  4.06102909E-05
  5.79450352E-05  3.20679744E-04  1.35034522E-04  1.55490881E-04 -1.06147704E-04
 -2.21284755E-04  3.99171426E-05  7.57709917E-05 -1.43340964E-06  9.71831167E-06
 -2.27409910E-05 -9.92746558E-05  2.27554265E-05 -6.21257899E-05  1.29089464E-04
  5.46989730E-05  2.42901236E-06 -7.05397051E-05 -1.35507421E-05 -1.91927756E-05
  7.72629585E-05  9.93012109E-01  1.97272733E-02 -2.81454838E-04 -6.22682618E-04
  3.91347871E-04  1.47407647E-02  1.69875894E-04  4.42482608E-04 -2.71569093E-04
 -7.97358800E-03 -8.26229266E-03 -8.07201722E-03 -1.58835955E-04  1.02240227E-04
  2.22673048E-04  3.57203059E-05  1.04257070E-04 -6.47306661E-06  2.33596594E-05
 -1.91180819E-06 -2.03654953E-04  5.29456008E-05 -1.55728708E-04  1.62210645E-05
  6.26929442E-05 -8.80017796E-05  6.55627545E-05  2.84047413E-05  1.66341000E-05
  2.83242345E-05  2.99563575E-06  5.43941406E-05 -6.58168094E-06 -9.88425182E-07
 -7.70658892E-07  2.15637415E-04  8.76336447E-05  3.43075447E-05  2.58729448E-05
 -1.43015013E-03 -4.43098256E-04 -6.68843006E-04  3.29515250E-04  3.34534050E-05
  5.10323469E-05  1.89472731E-05  1.40890521E-05 -6.93101232E-06 -3.47883373E-06
 -4.09532832E-05 -1.81103617E-04 -2.61057946E-05 -2.19287141E-05 -1.25077972E-05
  9.19847495E-04  2.04131140E-04  1.44050508E-04  1.74691724E-04 -1.06935728E-04
 -1.21598400E-04 -1.18617093E-04  1.37029524E-05  2.24570923E-05  2.43144839E-05
  1.11183498E-05  3.72661636E-05 -9.40336355E-06 -1.13222702E-05 -5.04071500E-06
 -2.01218552E-04  4.58432538E-05  6.68807627E-05  2.35568471E-05  3.24822988E-05
  4.54118936E-05  2.93023912E-05  2.25392669E-06  2.54364982E-06  3.17812639E-06
 -2.85788778E-05 -1.39976334E-04 -1.20669418E-05  1.80149965E-05  1.06914189E-05
  6.93727521E-04  1.46722811E-04 -1.66955739E-04 -1.38560630E-04 -7.38764418E-05
 -8.85620782E-05 -6.18997686E-05 -1.55016252E-05 -1.59820260E-05  1.37280712E-05
 -2.46360738E-05  9.95786864E-05 -3.08841704E-05 -1.57127208E-04  2.70321455E-04
  6.03385405E-05  4.77785940E-04  2.45649975E-04 -4.38500603E-04 -1.23796011E-04
  8.05455381E-05  1.32585284E-04  5.51884779E-05  5.73292665E-04  1.13474283E-05
  2.67429657E-04  3.64627816E-05  9.93028405E-01  1.97341905E-02 -2.71108106E-04
 -3.14032401E-05 -6.50881284E-04  1.46083289E-02  1.42088235E-04  2.83432310E-05
  4.51460273E-04 -7.95035287E-03 -7.92875594E-03 -8.30152255E-03 -8.19288523E-06
 -1.87893122E-04 -3.19882815E-05 -3.91460101E-05  3.93742480E-05 -1.01026599E-06
 -1.02195608E-05  2.76025656E-05  6.26701839E-05  7.39672747E-06  2.62722438E-05
 -1.41451334E-04  3.31855894E-05  4.28343054E-06 -1.09565029E-04 -2.52602368E-05
 -1.51433511E-05  6.08238883E-05  1.78295253E-04  7.06524973E-05 -2.34366727E-06
  7.83276067E-06  2.60199369E-05 -6.67884373E-05  1.63768013E-05 -3.52678313E-05
 -1.60660366E-04  4.23315792E-05  2.56978444E-05 -8.71266034E-05  1.83174481E-05
  2.37982729E-06 -8.03172359E-05  2.59337784E-06  4.88034198E-05 -7.26066947E-06
 -2.20897460E-07  3.55141068E-06  1.84379850E-04  9.11990808E-05  3.57167511E-05
 -2.42653968E-05 -1.30812841E-03 -5.14303374E-04 -1.60280906E-04 -8.02696045E-04
  3.93966970E-05  4.42390704E-05  3.73813641E-05  1.31363146E-05  3.22570197E-06
  6.32989711E-06  1.96075739E-05  7.36898591E-05 -9.56283944E-06 -9.11420455E-06
  3.61997812E-06 -4.01163135E-04  3.14285619E-05  4.72090846E-05 -1.87691115E-05
  6.04297624E-05  6.04165437E-05  6.07081921E-05  3.26651813E-06  6.51711092E-07
  6.97180820E-06 -3.88871678E-05 -1.80937742E-04 -1.16141885E-05 -1.90551881E-05
 -1.02661288E-05  9.68783413E-04  1.67065073E-04  2.21693647E-04  1.60505768E-05
 -1.00030954E-04 -8.54490152E-05 -1.32742223E-04  1.66570163E-05 -5.82647142E-06
  1.10840192E-05 -3.40444722E-05 -1.53759694E-04 -1.11233398E-05  2.19987666E-05
 -6.90396785E-06  7.65252957E-04  1.40037927E-04 -2.13885362E-04  2.28931912E-05
 -9.14000958E-05 -8.24392620E-05 -1.10742803E-04 -2.65250452E-05 -1.03273145E-06
 -1.56649770E-05 -5.71895196E-06  4.77637390E-06 -2.23107607E-05 -1.67071836E-04
  3.15557481E-04 -3.69879038E-04 -1.95523084E-04  2.54061049E-05 -3.70585834E-04
  2.65446717E-05  5.07237864E-05  2.28663028E-04  4.37755185E-04  1.54934973E-04
 -3.02148818E-04 -1.47717076E-04  1.92595613E-04 -1.75861238E-04  4.62946477E-05
  7.10208487E-06 -1.69014038E-05 -1.85776469E-05 -1.25600747E-05 -3.28001789E-05
  1.04651532E-04  9.38941915E-05  3.52862394E-05 -2.47612336E-05 -5.60780613E-05
  2.93122334E-05  8.25181650E-06 -9.12023438E-05 -2.51769220E-05  6.61970714E-05
  2.82715239E-06 -2.68608277E-05  1.18407083E-06 -4.13345180E-05 -1.15702497E-05
  1.44123431E-04  1.12694500E-05  4.09019518E-05 -1.09606757E-04  4.36665096E-05
  2.27239496E-05  2.83951153E-05  5.22581780E-07  9.93027446E-01  1.97080292E-02
 -3.67045048E-04  5.25067485E-04  2.40116218E-04  1.47196411E-02  1.93717368E-04
 -3.23275636E-04 -1.46925414E-04 -8.01602825E-03 -8.18149372E-03 -7.98774969E-03
  2.00913073E-04  9.36945257E-05 -1.39965248E-04  9.41044032E-07  2.59699145E-05
 -1.01058716E-05 -1.47298148E-06  1.00316629E-06  7.06574140E-05  1.23168771E-04
  2.52043355E-05 -1.48825147E-05 -1.01022653E-03 -4.86297194E-04  2.42166797E-04
  8.94551747E-05  2.89638526E-05  4.65799571E-05  1.84550744E-05  3.01094872E-06
 -7.06631154E-06  2.28341925E-05 -2.53210162E-05 -1.06936224E-04 -3.06994366E-05
  1.43455488E-05 -7.27676827E-06  5.10292788E-04  1.77284872E-04 -7.50034029E-05
  9.79204587E-05 -6.75375446E-05 -7.83371663E-05 -7.62675359E-05 -9.18895192E-06
  2.26681149E-05 -9.05315123E-06 -3.02346387E-05 -1.31045229E-04 -2.95675134E-05
  3.97215581E-06  1.67296216E-05  6.48457456E-04  1.82584712E-04  4.21356263E-05
 -1.48789984E-04 -8.53544777E-05 -9.54523366E-05 -7.91237716E-05  1.30583523E-05
 -2.19530848E-05 -5.00299955E-06  4.38728802E-07  9.56290822E-07 -1.29513295E-05
 -4.83522237E-06 -1.71242619E-06  2.77382944E-06  6.62655503E-05 -3.11478081E-07
 -1.47116262E-06  5.26675970E-06 -1.14200027E-06  2.67621930E-06 -9.71623273E-06
 -3.93471639E-06 -2.23923303E-06  6.06924726E-06 -1.69545315E-05 -2.50320710E-05
 -1.63470953E-04 -3.68530263E-05  3.18194768E-06 -1.47443896E-05  1.00846918E-03
 -4.79140298E-04 -6.33276820E-04  1.61848969E-04  5.31075008E-05 -2.04809135E-05
 -2.56687085E-05 -3.99377343E-05 -1.23798227E-05  3.13348317E-05 -3.70703285E-05
 -1.92990618E-04  3.69325543E-05 -1.02298150E-05  3.21229252E-06  5.44940932E-04
 -1.21002589E-04  9.77290534E-05  5.24776879E-07 -1.06968856E-04 -1.85179077E-04
 -1.60233868E-04 -8.65183086E-06 -3.65549899E-06 -2.81984480E-05 -5.05885967E-05
 -2.87158514E-04  1.66136873E-05  1.02954458E-05 -9.95877859E-06  9.95411685E-04
 -9.69016479E-05 -8.30791462E-05  1.05291869E-04 -1.69238295E-04 -2.01773965E-04
 -1.99330046E-04  3.78883801E-06 -1.50558759E-05 -1.78931634E-05  4.27338079E-05
  2.40972501E-04 -3.25508457E-05  9.20025936E-06  1.58799049E-05 -8.53120656E-04