 Entering Gaussian System, Link 0=g16
 Input=PFMS_1000K_step0040.gjf
 Output=PFMS_1000K_step0040.log
 Initial command:
 /apps/easybuild-2022/easybuild/software/Compiler/NVHPC/22.11-CUDA-11.7.0/Gaussian/g16c01-CUDA-11.7.0/g16/l1.exe "/tmp/Gau-270961.inp" -scrdir="/tmp/"
 Default is to use a total of   4 processors:
                                4 via shared-memory
                                1 via Linda
 Entering Link 1 = /apps/easybuild-2022/easybuild/software/Compiler/NVHPC/22.11-CUDA-11.7.0/Gaussian/g16c01-CUDA-11.7.0/g16/l1.exe PID=    270962.
  
 Copyright (c) 1988-2019, Gaussian, Inc.  All Rights Reserved.
  
 This is part of the Gaussian(R) 16 program.  It is based on
 the Gaussian(R) 09 system (copyright 2009, Gaussian, Inc.),
 the Gaussian(R) 03 system (copyright 2003, Gaussian, Inc.),
 the Gaussian(R) 98 system (copyright 1998, Gaussian, Inc.),
 the Gaussian(R) 94 system (copyright 1995, Gaussian, Inc.),
 the Gaussian 92(TM) system (copyright 1992, Gaussian, Inc.),
 the Gaussian 90(TM) system (copyright 1990, Gaussian, Inc.),
 the Gaussian 88(TM) system (copyright 1988, Gaussian, Inc.),
 the Gaussian 86(TM) system (copyright 1986, Carnegie Mellon
 University), and the Gaussian 82(TM) system (copyright 1983,
 Carnegie Mellon University). Gaussian is a federally registered
 trademark of Gaussian, Inc.
  
 This software contains proprietary and confidential information,
 including trade secrets, belonging to Gaussian, Inc.
  
 This software is provided under written license and may be
 used, copied, transmitted, or stored only in accord with that
 written license.
  
 The following legend is applicable only to US Government
 contracts under FAR:
  
                    RESTRICTED RIGHTS LEGEND
  
 Use, reproduction and disclosure by the US Government is
 subject to restrictions as set forth in subparagraphs (a)
 and (c) of the Commercial Computer Software - Restricted
 Rights clause in FAR 52.227-19.
  
 Gaussian, Inc.
 340 Quinnipiac St., Bldg. 40, Wallingford CT 06492
  
  
 ---------------------------------------------------------------
 Warning -- This program may not be used in any manner that
 competes with the business of Gaussian, Inc. or will provide
 assistance to any competitor of Gaussian, Inc.  The licensee
 of this program is prohibited from giving any competitor of
 Gaussian, Inc. access to this program.  By using this program,
 the user acknowledges that Gaussian, Inc. is engaged in the
 business of creating and licensing software in the field of
 computational chemistry and represents and warrants to the
 licensee that it is not a competitor of Gaussian, Inc. and that
 it will not use this program in any manner prohibited above.
 ---------------------------------------------------------------
  

 Cite this work as:
 Gaussian 16, Revision C.01,
 M. J. Frisch, G. W. Trucks, H. B. Schlegel, G. E. Scuseria, 
 M. A. Robb, J. R. Cheeseman, G. Scalmani, V. Barone, 
 G. A. Petersson, H. Nakatsuji, X. Li, M. Caricato, A. V. Marenich, 
 J. Bloino, B. G. Janesko, R. Gomperts, B. Mennucci, H. P. Hratchian, 
 J. V. Ortiz, A. F. Izmaylov, J. L. Sonnenberg, D. Williams-Young, 
 F. Ding, F. Lipparini, F. Egidi, J. Goings, B. Peng, A. Petrone, 
 T. Henderson, D. Ranasinghe, V. G. Zakrzewski, J. Gao, N. Rega, 
 G. Zheng, W. Liang, M. Hada, M. Ehara, K. Toyota, R. Fukuda, 
 J. Hasegawa, M. Ishida, T. Nakajima, Y. Honda, O. Kitao, H. Nakai, 
 T. Vreven, K. Throssell, J. A. Montgomery, Jr., J. E. Peralta, 
 F. Ogliaro, M. J. Bearpark, J. J. Heyd, E. N. Brothers, K. N. Kudin, 
 V. N. Staroverov, T. A. Keith, R. Kobayashi, J. Normand, 
 K. Raghavachari, A. P. Rendell, J. C. Burant, S. S. Iyengar, 
 J. Tomasi, M. Cossi, J. M. Millam, M. Klene, C. Adamo, R. Cammi, 
 J. W. Ochterski, R. L. Martin, K. Morokuma, O. Farkas, 
 J. B. Foresman, and D. J. Fox, Gaussian, Inc., Wallingford CT, 2019.
 
 ******************************************
 Gaussian 16:  ES64L-G16RevC.01  3-Jul-2019
                20-Mar-2025 
 ******************************************
 %chk=PFMS_1000K_step0040.chk
 %mem=8GB
 %nprocshared=4
 Will use up to    4 processors via shared memory.
 -----------------------------------------
 # B3LYP/6-31G(d) pop=full density=current
 -----------------------------------------
 1/30=1,38=1,172=1/1;
 2/12=2,17=6,18=5,40=1/2;
 3/5=1,6=6,7=1,11=2,25=1,30=1,74=-5/1,2,3;
 4//1;
 5/5=2,38=5/2;
 6/7=3,22=-1,28=1/1;
 99/5=1,9=1/99;
 -----------------
 PFMS Time step 40
 -----------------
 Symbolic Z-matrix:
 Charge =  0 Multiplicity = 1
 C                    -0.91668   0.03007  -0.21805 
 F                    -1.05504   0.15875  -1.62428 
 F                    -1.58956   1.05088   0.35393 
 F                    -1.6814   -1.15006   0.05937 
 S                     0.85603  -0.17997   0.27216 
 O                     1.02728  -0.18193   1.73125 
 O                     1.52502  -1.04102  -0.53846 
 O                     1.44981   1.36605  -0.18614 
 H                     1.79096   1.95773   0.81414 
 
                          Input orientation:                          
 ---------------------------------------------------------------------
 Center     Atomic      Atomic             Coordinates (Angstroms)
 Number     Number       Type             X           Y           Z
 ---------------------------------------------------------------------
      1          6           0       -0.916683    0.030066   -0.218052
      2          9           0       -1.055043    0.158747   -1.624281
      3          9           0       -1.589559    1.050879    0.353926
      4          9           0       -1.681402   -1.150064    0.059373
      5         16           0        0.856031   -0.179974    0.272161
      6          8           0        1.027276   -0.181934    1.731247
      7          8           0        1.525022   -1.041024   -0.538462
      8          8           0        1.449806    1.366050   -0.186136
      9          1           0        1.790957    1.957732    0.814136
 ---------------------------------------------------------------------
                    Distance matrix (angstroms):
                    1          2          3          4          5
     1  C    0.000000
     2  F    1.418867   0.000000
     3  F    1.349807   2.234929   0.000000
     4  F    1.433341   2.222612   2.222464   0.000000
     5  S    1.851200   2.713564   2.739087   2.724871   0.000000
     6  O    2.761103   3.963797   3.203852   3.327067   1.469102
     7  O    2.685483   3.045519   3.856557   3.263503   1.358700
     8  O    2.717746   3.130513   3.103021   4.024372   1.718370
     9  H    3.480319   4.157155   3.530165   4.720735   2.395331
                    6          7          8          9
     6  O    0.000000
     7  O    2.477371   0.000000
     8  O    2.500229   2.433885   0.000000
     9  H    2.449994   3.300421   1.211204   0.000000
 Stoichiometry    CHF3O3S
 Framework group  C1[X(CHF3O3S)]
 Deg. of freedom    21
 Full point group                 C1      NOp   1
 Largest Abelian subgroup         C1      NOp   1
 Largest concise Abelian subgroup C1      NOp   1
                         Standard orientation:                         
 ---------------------------------------------------------------------
 Center     Atomic      Atomic             Coordinates (Angstroms)
 Number     Number       Type             X           Y           Z
 ---------------------------------------------------------------------
      1          6           0        0.983162    0.063877   -0.037713
      2          9           0        1.496976    0.147447    1.282208
      3          9           0        1.425972    1.142537   -0.717708
      4          9           0        1.694571   -1.058952   -0.574014
      5         16           0       -0.844647   -0.229474   -0.036185
      6          8           0       -1.410303   -0.186535   -1.391342
      7          8           0       -1.225307   -1.157483    0.880310
      8          8           0       -1.358663    1.261449    0.646260
      9          1           0       -1.988114    1.869605   -0.190970
 ---------------------------------------------------------------------
 Rotational constants (GHZ):           2.5716858           1.4170069           1.4097979
 Standard basis: 6-31G(d) (6D, 7F)
 There are   126 symmetry adapted cartesian basis functions of A   symmetry.
 There are   126 symmetry adapted basis functions of A   symmetry.
   126 basis functions,   252 primitive gaussians,   126 cartesian basis functions
    37 alpha electrons       37 beta electrons
       nuclear repulsion energy       550.2119417344 Hartrees.
 NAtoms=    9 NActive=    9 NUniq=    9 SFac= 1.00D+00 NAtFMM=   60 NAOKFM=F Big=F
 Integral buffers will be    131072 words long.
 Raffenetti 2 integral format.
 Two-electron integral symmetry is turned on.
 One-electron integrals computed using PRISM.
 NBasis=   126 RedAO= T EigKep=  2.66D-03  NBF=   126
 NBsUse=   126 1.00D-06 EigRej= -1.00D+00 NBFU=   126
 ExpMin= 1.17D-01 ExpMax= 2.19D+04 ExpMxC= 3.30D+03 IAcc=3 IRadAn=         5 AccDes= 0.00D+00
 Harris functional with IExCor=  402 and IRadAn=       5 diagonalized for initial guess.
 HarFok:  IExCor=  402 AccDes= 0.00D+00 IRadAn=         5 IDoV= 1 UseB2=F ITyADJ=14
 ICtDFT=  3500011 ScaDFX=  1.000000  1.000000  1.000000  1.000000
 FoFCou: FMM=F IPFlag=           0 FMFlag=      100000 FMFlg1=           0
         NFxFlg=           0 DoJE=T BraDBF=F KetDBF=T FulRan=T
         wScrn=  0.000000 ICntrl=       500 IOpCl=  0 I1Cent=   200000004 NGrid=           0
         NMat0=    1 NMatS0=      1 NMatT0=    0 NMatD0=    1 NMtDS0=    0 NMtDT0=    0
 Petite list used in FoFCou.
 Keep R1 ints in memory in canonical form, NReq=35818892.
 Requested convergence on RMS density matrix=1.00D-08 within 128 cycles.
 Requested convergence on MAX density matrix=1.00D-06.
 Requested convergence on             energy=1.00D-06.
 No special actions if energy rises.
 Integral accuracy reduced to 1.0D-05 until final iterations.
 Initial convergence to 1.0D-05 achieved.  Increase integral accuracy.
 SCF Done:  E(RB3LYP) =  -961.930350221     A.U. after   15 cycles
            NFock= 15  Conv=0.46D-08     -V/T= 2.0064

 **********************************************************************

            Population analysis using the SCF Density.

 **********************************************************************

 Orbital symmetries:
       Occupied  (A) (A) (A) (A) (A) (A) (A) (A) (A) (A) (A) (A)
                 (A) (A) (A) (A) (A) (A) (A) (A) (A) (A) (A) (A)
                 (A) (A) (A) (A) (A) (A) (A) (A) (A) (A) (A) (A)
                 (A)
       Virtual   (A) (A) (A) (A) (A) (A) (A) (A) (A) (A) (A) (A)
                 (A) (A) (A) (A) (A) (A) (A) (A) (A) (A) (A) (A)
                 (A) (A) (A) (A) (A) (A) (A) (A) (A) (A) (A) (A)
                 (A) (A) (A) (A) (A) (A) (A) (A) (A) (A) (A) (A)
                 (A) (A) (A) (A) (A) (A) (A) (A) (A) (A) (A) (A)
                 (A) (A) (A) (A) (A) (A) (A) (A) (A) (A) (A) (A)
                 (A) (A) (A) (A) (A) (A) (A) (A) (A) (A) (A) (A)
                 (A) (A) (A) (A) (A)
 The electronic state is 1-A.
 Alpha  occ. eigenvalues --  -89.17281 -24.78815 -24.76006 -24.75637 -19.23544
 Alpha  occ. eigenvalues --  -19.21345 -19.19727 -10.50214  -8.20040  -6.16517
 Alpha  occ. eigenvalues --   -6.16415  -6.16350  -1.32596  -1.24901  -1.22331
 Alpha  occ. eigenvalues --   -1.20684  -1.07557  -1.01868  -0.79373  -0.68121
 Alpha  occ. eigenvalues --   -0.61561  -0.60604  -0.59365  -0.55248  -0.51281
 Alpha  occ. eigenvalues --   -0.49864  -0.48742  -0.48022  -0.46230  -0.45535
 Alpha  occ. eigenvalues --   -0.44434  -0.42833  -0.40570  -0.39156  -0.36970
 Alpha  occ. eigenvalues --   -0.35616  -0.34503
 Alpha virt. eigenvalues --   -0.05685  -0.03362  -0.00004   0.01760   0.08381
 Alpha virt. eigenvalues --    0.11317   0.13467   0.19281   0.28487   0.31088
 Alpha virt. eigenvalues --    0.33755   0.40350   0.45703   0.49758   0.51879
 Alpha virt. eigenvalues --    0.64933   0.66999   0.68970   0.74846   0.75709
 Alpha virt. eigenvalues --    0.79774   0.86011   0.87261   0.92720   0.96654
 Alpha virt. eigenvalues --    0.97262   0.99798   1.01151   1.03818   1.07926
 Alpha virt. eigenvalues --    1.09350   1.10030   1.13210   1.16917   1.18483
 Alpha virt. eigenvalues --    1.23362   1.26980   1.28801   1.32420   1.34652
 Alpha virt. eigenvalues --    1.35325   1.35836   1.38031   1.52542   1.54870
 Alpha virt. eigenvalues --    1.57126   1.60225   1.68758   1.70953   1.73081
 Alpha virt. eigenvalues --    1.74833   1.76686   1.78325   1.78751   1.79722
 Alpha virt. eigenvalues --    1.81226   1.82615   1.83099   1.86342   1.90194
 Alpha virt. eigenvalues --    1.91822   1.94238   1.96945   1.98728   2.00838
 Alpha virt. eigenvalues --    2.05835   2.09097   2.10571   2.14317   2.16717
 Alpha virt. eigenvalues --    2.18525   2.29389   2.36382   2.56332   2.61255
 Alpha virt. eigenvalues --    2.64165   2.72518   2.81844   2.85059   3.00119
 Alpha virt. eigenvalues --    3.02669   3.54439   3.84871   3.85642   3.94059
 Alpha virt. eigenvalues --    4.22421   4.28050   4.34475   5.05493
     Molecular Orbital Coefficients:
                           1         2         3         4         5
                           O         O         O         O         O
     Eigenvalues --   -89.17281 -24.78815 -24.76006 -24.75637 -19.23544
   1 1   C  1S         -0.00002  -0.00003  -0.00003  -0.00002  -0.00003
   2        2S         -0.00007   0.00007  -0.00016  -0.00017  -0.00016
   3        2PX        -0.00005   0.00031   0.00027   0.00032  -0.00004
   4        2PY        -0.00000   0.00053   0.00006  -0.00037   0.00000
   5        2PZ        -0.00001  -0.00032   0.00048  -0.00020  -0.00001
   6        3S          0.00079   0.00038   0.00025   0.00003   0.00101
   7        3PX        -0.00037  -0.00048  -0.00044  -0.00037  -0.00048
   8        3PY        -0.00013  -0.00020  -0.00012   0.00003  -0.00063
   9        3PZ         0.00006   0.00004   0.00008   0.00005   0.00016
  10        4XX        -0.00004   0.00006   0.00013   0.00023   0.00005
  11        4YY        -0.00000   0.00032   0.00006   0.00044  -0.00002
  12        4ZZ        -0.00000   0.00014   0.00057   0.00015  -0.00003
  13        4XY        -0.00002   0.00016   0.00001  -0.00030  -0.00004
  14        4XZ         0.00000  -0.00011   0.00027  -0.00015  -0.00001
  15        4YZ        -0.00000  -0.00022   0.00004   0.00019   0.00003
  16 2   F  1S          0.00002   0.00004   0.99303  -0.00018  -0.00004
  17        2S          0.00012   0.00008   0.01973   0.00005  -0.00019
  18        2PX        -0.00001  -0.00000  -0.00027   0.00001   0.00004
  19        2PY        -0.00001   0.00001  -0.00003  -0.00002  -0.00001
  20        2PZ         0.00000  -0.00002  -0.00065  -0.00002   0.00000
  21        3S         -0.00044  -0.00010   0.01461  -0.00001   0.00054
  22        3PX         0.00013   0.00002   0.00014  -0.00003  -0.00012
  23        3PY         0.00004  -0.00006   0.00003   0.00010   0.00010
  24        3PZ         0.00006   0.00013   0.00045   0.00009   0.00000
  25        4XX         0.00007   0.00005  -0.00795   0.00004  -0.00011
  26        4YY         0.00006   0.00000  -0.00793  -0.00002  -0.00019
  27        4ZZ         0.00008  -0.00007  -0.00830  -0.00006  -0.00016
  28        4XY        -0.00000  -0.00001  -0.00001   0.00003  -0.00001
  29        4XZ        -0.00003  -0.00002  -0.00019   0.00001  -0.00000
  30        4YZ        -0.00001   0.00008  -0.00003  -0.00009  -0.00003
  31 3   F  1S          0.00001   0.99301  -0.00004  -0.00003  -0.00005
  32        2S          0.00008   0.01973   0.00004   0.00007  -0.00029
  33        2PX        -0.00002  -0.00028  -0.00000   0.00000   0.00002
  34        2PY         0.00000  -0.00062  -0.00001  -0.00003   0.00001
  35        2PZ        -0.00000   0.00039   0.00003   0.00000  -0.00001
  36        3S         -0.00029   0.01474   0.00006  -0.00004   0.00100
  37        3PX         0.00013   0.00017   0.00001  -0.00001  -0.00010
  38        3PY         0.00004   0.00044   0.00003   0.00014  -0.00008
  39        3PZ        -0.00001  -0.00027  -0.00014   0.00001   0.00011
  40        4XX         0.00004  -0.00797   0.00003   0.00004  -0.00017
  41        4YY         0.00005  -0.00826   0.00000  -0.00011  -0.00020
  42        4ZZ         0.00005  -0.00807  -0.00011   0.00004  -0.00020
  43        4XY        -0.00003  -0.00016  -0.00003   0.00002   0.00000
  44        4XZ         0.00002   0.00010  -0.00002   0.00003  -0.00002
  45        4YZ        -0.00001   0.00022   0.00006   0.00000  -0.00002
  46 4   F  1S          0.00002   0.00004   0.00018   0.99303   0.00004
  47        2S          0.00013   0.00010   0.00007   0.01971   0.00024
  48        2PX        -0.00002  -0.00001  -0.00000  -0.00037  -0.00003
  49        2PY        -0.00001   0.00002   0.00001   0.00053   0.00001
  50        2PZ         0.00000  -0.00000   0.00003   0.00024   0.00002
  51        3S         -0.00047  -0.00020  -0.00007   0.01472  -0.00085
  52        3PX         0.00015   0.00005   0.00002   0.00019   0.00019
  53        3PY        -0.00003  -0.00016  -0.00004  -0.00032  -0.00008
  54        3PZ        -0.00004   0.00002  -0.00016  -0.00015  -0.00011
  55        4XX         0.00007   0.00006   0.00004  -0.00802   0.00015
  56        4YY         0.00009  -0.00009   0.00003  -0.00818   0.00017
  57        4ZZ         0.00007   0.00007  -0.00009  -0.00799   0.00015
  58        4XY         0.00002   0.00003   0.00002   0.00020   0.00003
  59        4XZ         0.00001   0.00002   0.00000   0.00009   0.00002
  60        4YZ         0.00001   0.00003  -0.00008  -0.00014  -0.00002
  61 5   S  1S          0.99612   0.00000   0.00000   0.00000   0.00000
  62        2S          0.01486   0.00005   0.00005   0.00003   0.00006
  63        2PX         0.00001  -0.00001  -0.00001  -0.00001   0.00000
  64        2PY         0.00002  -0.00000  -0.00000  -0.00000  -0.00007
  65        2PZ         0.00001  -0.00000   0.00000   0.00000  -0.00003
  66        3S         -0.02413   0.00022   0.00018   0.00007  -0.00001
  67        3PX        -0.00008   0.00009   0.00009   0.00012   0.00011
  68        3PY        -0.00007   0.00003   0.00004   0.00003   0.00018
  69        3PZ        -0.00002   0.00003  -0.00002  -0.00001   0.00007
  70        4S          0.00154  -0.00143  -0.00131  -0.00101  -0.00334
  71        4PX         0.00003  -0.00044  -0.00051  -0.00049  -0.00030
  72        4PY        -0.00005  -0.00067  -0.00016   0.00024  -0.00087
  73        4PZ        -0.00007   0.00033  -0.00080   0.00009  -0.00117
  74        5XX         0.00848   0.00003   0.00004   0.00003   0.00017
  75        5YY         0.00856   0.00005   0.00004   0.00005   0.00033
  76        5ZZ         0.00862   0.00002   0.00004   0.00002   0.00015
  77        5XY         0.00002   0.00001   0.00001   0.00000  -0.00004
  78        5XZ         0.00001  -0.00001   0.00000  -0.00001  -0.00002
  79        5YZ        -0.00005  -0.00000   0.00001   0.00002   0.00014
  80 6   O  1S          0.00001  -0.00004   0.00002  -0.00003  -0.00006
  81        2S          0.00001  -0.00018   0.00007  -0.00011  -0.00005
  82        2PX        -0.00003  -0.00003  -0.00001  -0.00003   0.00001
  83        2PY         0.00001  -0.00002  -0.00001   0.00001  -0.00003
  84        2PZ        -0.00011  -0.00001   0.00000  -0.00001   0.00000
  85        3S          0.00039   0.00092  -0.00040   0.00051   0.00039
  86        3PX         0.00007   0.00020   0.00003   0.00018   0.00004
  87        3PY        -0.00001   0.00014   0.00005  -0.00008   0.00016
  88        3PZ         0.00029   0.00017  -0.00002   0.00010   0.00019
  89        4XX         0.00000  -0.00011   0.00006  -0.00007  -0.00002
  90        4YY         0.00006  -0.00012   0.00006  -0.00008  -0.00007
  91        4ZZ        -0.00017  -0.00012   0.00006  -0.00008  -0.00004
  92        4XY         0.00000   0.00001   0.00000  -0.00001   0.00003
  93        4XZ        -0.00012   0.00002   0.00000   0.00002   0.00001
  94        4YZ         0.00001   0.00002   0.00001  -0.00001  -0.00003
  95 7   O  1S          0.00001   0.00001  -0.00004  -0.00003  -0.00002
  96        2S         -0.00006   0.00004  -0.00018  -0.00013  -0.00023
  97        2PX        -0.00004  -0.00001  -0.00001  -0.00003  -0.00002
  98        2PY        -0.00014  -0.00001  -0.00002   0.00000  -0.00001
  99        2PZ         0.00014  -0.00001  -0.00001   0.00002  -0.00003
 100        3S          0.00050  -0.00020   0.00097   0.00065   0.00160
 101        3PX         0.00004   0.00005   0.00017   0.00018   0.00020
 102        3PY         0.00023   0.00007   0.00022   0.00004   0.00032
 103        3PZ        -0.00022   0.00002   0.00002  -0.00015  -0.00003
 104        4XX         0.00003   0.00003  -0.00010  -0.00009  -0.00012
 105        4YY        -0.00005   0.00005  -0.00009  -0.00010  -0.00024
 106        4ZZ        -0.00005   0.00003  -0.00013  -0.00008  -0.00016
 107        4XY        -0.00006   0.00000   0.00002   0.00001   0.00005
 108        4XZ         0.00006   0.00000  -0.00001  -0.00002   0.00002
 109        4YZ         0.00013   0.00000   0.00001  -0.00001  -0.00002
 110 8   O  1S         -0.00002  -0.00003  -0.00003   0.00000   0.99284
 111        2S         -0.00002  -0.00014  -0.00015   0.00000   0.02571
 112        2PX         0.00003  -0.00001  -0.00001  -0.00001  -0.00015
 113        2PY        -0.00003   0.00002   0.00002  -0.00000  -0.00015
 114        2PZ         0.00000   0.00001  -0.00001  -0.00000  -0.00082
 115        3S          0.00053   0.00069   0.00077   0.00000   0.01145
 116        3PX         0.00002   0.00015   0.00014   0.00007   0.00032
 117        3PY        -0.00024  -0.00017  -0.00021  -0.00000  -0.00056
 118        3PZ        -0.00018  -0.00014   0.00002  -0.00000  -0.00006
 119        4XX        -0.00006  -0.00007  -0.00009   0.00001  -0.00790
 120        4YY        -0.00010  -0.00009  -0.00008  -0.00000  -0.00790
 121        4ZZ        -0.00005  -0.00006  -0.00011   0.00000  -0.00794
 122        4XY         0.00002  -0.00002  -0.00003  -0.00001  -0.00003
 123        4XZ         0.00003  -0.00002  -0.00000  -0.00000  -0.00000
 124        4YZ        -0.00004   0.00001  -0.00002  -0.00000  -0.00002
 125 9   H  1S         -0.00006  -0.00002  -0.00001   0.00001   0.00023
 126        2S         -0.00008   0.00010   0.00000  -0.00002  -0.00070
                           6         7         8         9        10
                           O         O         O         O         O
     Eigenvalues --   -19.21345 -19.19727 -10.50214  -8.20040  -6.16517
   1 1   C  1S         -0.00001  -0.00001   0.99339   0.00001  -0.00001
   2        2S         -0.00006  -0.00009   0.04652   0.00074  -0.00018
   3        2PX        -0.00003  -0.00001   0.00060   0.00012   0.00006
   4        2PY         0.00003  -0.00001   0.00038  -0.00005  -0.00015
   5        2PZ        -0.00003   0.00005  -0.00015   0.00002  -0.00003
   6        3S          0.00037   0.00047  -0.01283  -0.00178   0.00013
   7        3PX        -0.00022  -0.00036   0.00285   0.00176   0.00022
   8        3PY        -0.00030   0.00036   0.00051   0.00110  -0.00180
   9        3PZ         0.00079  -0.00062  -0.00033  -0.00060   0.00007
  10        4XX         0.00002   0.00004  -0.00826  -0.00068  -0.00002
  11        4YY        -0.00003   0.00001  -0.00770  -0.00013   0.00015
  12        4ZZ         0.00002  -0.00002  -0.00782  -0.00017  -0.00003
  13        4XY        -0.00001   0.00002   0.00008  -0.00006   0.00034
  14        4XZ         0.00003  -0.00001  -0.00008  -0.00003   0.00009
  15        4YZ         0.00001  -0.00002  -0.00019  -0.00000   0.00014
  16 2   F  1S          0.00000   0.00001  -0.00011  -0.00016   0.00002
  17        2S          0.00002   0.00002  -0.00038  -0.00092   0.00010
  18        2PX         0.00003  -0.00004  -0.00001   0.00020   0.00000
  19        2PY        -0.00001   0.00000   0.00000   0.00006  -0.00013
  20        2PZ        -0.00002   0.00001  -0.00001   0.00002  -0.00002
  21        3S         -0.00024   0.00003   0.00196   0.00302  -0.00033
  22        3PX        -0.00007   0.00012  -0.00003  -0.00103  -0.00003
  23        3PY         0.00004  -0.00004  -0.00002  -0.00032   0.00061
  24        3PZ         0.00015  -0.00009   0.00034  -0.00030   0.00010
  25        4XX         0.00004   0.00002  -0.00025  -0.00049   0.00011
  26        4YY        -0.00002   0.00006  -0.00009  -0.00067   0.00006
  27        4ZZ        -0.00003   0.00006  -0.00090  -0.00068   0.00005
  28        4XY         0.00001  -0.00000  -0.00002   0.00005  -0.00013
  29        4XZ        -0.00002  -0.00000  -0.00020   0.00020  -0.00000
  30        4YZ        -0.00002   0.00002  -0.00004   0.00007  -0.00008
  31 3   F  1S          0.00000  -0.00000  -0.00008  -0.00009  -0.00009
  32        2S         -0.00001   0.00002  -0.00010  -0.00051  -0.00054
  33        2PX        -0.00004   0.00003  -0.00000   0.00021   0.00005
  34        2PY         0.00001  -0.00001  -0.00003   0.00001  -0.00004
  35        2PZ         0.00001  -0.00000   0.00001   0.00001  -0.00008
  36        3S          0.00016  -0.00021   0.00079   0.00132   0.00202
  37        3PX         0.00010  -0.00003   0.00010  -0.00093  -0.00034
  38        3PY        -0.00011   0.00011   0.00075  -0.00010   0.00007
  39        3PZ        -0.00002  -0.00002  -0.00044  -0.00002   0.00042
  40        4XX         0.00000   0.00002  -0.00004  -0.00024  -0.00028
  41        4YY         0.00006  -0.00005  -0.00059  -0.00040  -0.00042
  42        4ZZ         0.00002  -0.00002  -0.00016  -0.00045  -0.00034
  43        4XY        -0.00000  -0.00001  -0.00021   0.00016  -0.00001
  44        4XZ        -0.00000   0.00002   0.00012  -0.00009  -0.00010
  45        4YZ         0.00001  -0.00001   0.00052  -0.00002   0.00002
  46 4   F  1S         -0.00004  -0.00003  -0.00012  -0.00013   0.00018
  47        2S         -0.00018  -0.00015  -0.00039  -0.00077   0.00106
  48        2PX         0.00003   0.00002   0.00001   0.00018  -0.00012
  49        2PY        -0.00001   0.00000   0.00002   0.00003  -0.00003
  50        2PZ         0.00001  -0.00002   0.00000  -0.00003   0.00003
  51        3S          0.00057   0.00049   0.00193   0.00251  -0.00370
  52        3PX        -0.00010  -0.00007  -0.00005  -0.00097   0.00078
  53        3PY         0.00007  -0.00001  -0.00036   0.00000  -0.00009
  54        3PZ        -0.00008   0.00010  -0.00010   0.00024  -0.00028
  55        4XX        -0.00012  -0.00010  -0.00032  -0.00034   0.00054
  56        4YY        -0.00012  -0.00015  -0.00073  -0.00063   0.00081
  57        4ZZ        -0.00018  -0.00011  -0.00025  -0.00053   0.00070
  58        4XY         0.00000   0.00000   0.00028  -0.00012   0.00002
  59        4XZ        -0.00001   0.00000   0.00013  -0.00010   0.00006
  60        4YZ        -0.00002   0.00003  -0.00032   0.00001   0.00002
  61 5   S  1S          0.00001   0.00001  -0.00001  -0.27989   0.00031
  62        2S         -0.00007  -0.00004  -0.00020   1.02293  -0.00140
  63        2PX        -0.00005  -0.00001   0.00000   0.00022  -0.22073
  64        2PY        -0.00008  -0.00001   0.00001   0.00098   0.92874
  65        2PZ         0.00007   0.00001  -0.00001   0.00146   0.26647
  66        3S          0.00090   0.00073  -0.00067   0.07307  -0.00116
  67        3PX         0.00013   0.00001   0.00010  -0.00034  -0.00647
  68        3PY         0.00014   0.00008  -0.00010  -0.00043   0.02897
  69        3PZ        -0.00008  -0.00024   0.00001   0.00047   0.00758
  70        4S         -0.00342  -0.00316   0.00767  -0.00797   0.00103
  71        4PX         0.00037   0.00065   0.00305  -0.00169   0.00183
  72        4PY         0.00144  -0.00074   0.00143  -0.00133  -0.00463
  73        4PZ        -0.00232   0.00224   0.00037   0.00047  -0.00196
  74        5XX        -0.00027  -0.00013  -0.00012  -0.01535  -0.00019
  75        5YY        -0.00039  -0.00018  -0.00020  -0.01504   0.00075
  76        5ZZ        -0.00040  -0.00007  -0.00005  -0.01458  -0.00045
  77        5XY        -0.00008  -0.00003  -0.00005   0.00017  -0.00086
  78        5XZ         0.00005   0.00005   0.00001   0.00009  -0.00023
  79        5YZ         0.00018   0.00001  -0.00005  -0.00051   0.00146
  80 6   O  1S         -0.00017   0.99275   0.00006  -0.00009   0.00008
  81        2S          0.00009   0.02569   0.00029   0.00042   0.00004
  82        2PX         0.00004   0.00040   0.00004  -0.00000   0.00004
  83        2PY         0.00005  -0.00004   0.00004  -0.00008  -0.00002
  84        2PZ        -0.00001   0.00089  -0.00000   0.00030  -0.00007
  85        3S         -0.00048   0.01256  -0.00166  -0.00315  -0.00010
  86        3PX        -0.00019   0.00026  -0.00058  -0.00058   0.00020
  87        3PY        -0.00028   0.00012  -0.00026   0.00043  -0.00074
  88        3PZ         0.00017   0.00057  -0.00037  -0.00291   0.00055
  89        4XX         0.00008  -0.00809   0.00019   0.00028   0.00015
  90        4YY         0.00005  -0.00808   0.00011   0.00022   0.00008
  91        4ZZ         0.00009  -0.00806   0.00015   0.00017  -0.00005
  92        4XY        -0.00002   0.00001  -0.00000   0.00001  -0.00027
  93        4XZ         0.00001   0.00001  -0.00006   0.00004   0.00016
  94        4YZ         0.00003   0.00002  -0.00005   0.00001  -0.00064
  95 7   O  1S          0.99264   0.00020   0.00005  -0.00021   0.00036
  96        2S          0.02568   0.00008   0.00025   0.00090  -0.00037
  97        2PX         0.00040   0.00005   0.00002   0.00008  -0.00008
  98        2PY         0.00085   0.00003   0.00002   0.00046  -0.00036
  99        2PZ        -0.00089   0.00004   0.00003  -0.00055   0.00036
 100        3S          0.01385  -0.00029  -0.00161  -0.00567   0.00254
 101        3PX         0.00030  -0.00022  -0.00048  -0.00049   0.00067
 102        3PY         0.00071  -0.00000  -0.00046  -0.00245   0.00100
 103        3PZ        -0.00047  -0.00036   0.00004   0.00274  -0.00198
 104        4XX        -0.00833   0.00005   0.00019   0.00035   0.00007
 105        4YY        -0.00818   0.00007   0.00004   0.00046  -0.00062
 106        4ZZ        -0.00821   0.00005   0.00013   0.00048   0.00023
 107        4XY         0.00009  -0.00002  -0.00003   0.00013  -0.00008
 108        4XZ        -0.00007  -0.00003   0.00003  -0.00014  -0.00011
 109        4YZ        -0.00018  -0.00003  -0.00005  -0.00025   0.00028
 110 8   O  1S         -0.00008   0.00001   0.00008   0.00002   0.00007
 111        2S         -0.00013  -0.00014   0.00038   0.00032   0.00112
 112        2PX         0.00001   0.00001   0.00000  -0.00015  -0.00006
 113        2PY         0.00003  -0.00001  -0.00004   0.00009   0.00004
 114        2PZ        -0.00005   0.00005   0.00000  -0.00003  -0.00012
 115        3S          0.00088   0.00085  -0.00219  -0.00138  -0.00375
 116        3PX        -0.00001  -0.00001  -0.00039   0.00011  -0.00098
 117        3PY        -0.00030  -0.00012   0.00062   0.00153   0.00323
 118        3PZ         0.00022  -0.00038   0.00021   0.00094   0.00213
 119        4XX        -0.00008  -0.00008   0.00030   0.00025   0.00065
 120        4YY        -0.00015  -0.00010   0.00017  -0.00043  -0.00073
 121        4ZZ        -0.00014  -0.00012   0.00014   0.00016   0.00039
 122        4XY        -0.00001   0.00001   0.00004   0.00026   0.00074
 123        4XZ         0.00004  -0.00004   0.00001   0.00004   0.00027
 124        4YZ         0.00001   0.00000   0.00001  -0.00033  -0.00084
 125 9   H  1S          0.00002  -0.00004   0.00008   0.00011   0.00026
 126        2S         -0.00008   0.00008  -0.00027   0.00070   0.00077
                          11        12        13        14        15
                           O         O         O         O         O
     Eigenvalues --    -6.16415  -6.16350  -1.32596  -1.24901  -1.22331
   1 1   C  1S         -0.00001   0.00012  -0.09013  -0.02286  -0.00297
   2        2S         -0.00091   0.00183   0.18551   0.04771   0.00625
   3        2PX        -0.00008   0.00006   0.05324   0.01850   0.01295
   4        2PY         0.00004  -0.00001   0.04844  -0.09967  -0.07686
   5        2PZ        -0.00008  -0.00002  -0.02434   0.08700  -0.09436
   6        3S          0.00227  -0.00577   0.01759   0.01257   0.00212
   7        3PX        -0.00210   0.00345  -0.01819  -0.00620  -0.00061
   8        3PY         0.00066   0.00144  -0.00390   0.00326  -0.00039
   9        3PZ        -0.00259  -0.00223   0.00063  -0.00489   0.00120
  10        4XX         0.00088  -0.00113  -0.00902   0.00096   0.00233
  11        4YY         0.00021  -0.00000   0.00353  -0.01044   0.01123
  12        4ZZ        -0.00002  -0.00015  -0.00243   0.00799  -0.01379
  13        4XY         0.00004  -0.00024   0.00497  -0.01152  -0.01052
  14        4XZ         0.00029   0.00018  -0.00311   0.00840  -0.01115
  15        4YZ        -0.00007   0.00003  -0.00866   0.01626   0.00714
  16 2   F  1S         -0.00002  -0.00031  -0.08713  -0.14467   0.14594
  17        2S         -0.00014  -0.00181   0.18857   0.32285  -0.32824
  18        2PX        -0.00014   0.00027  -0.01503  -0.02177   0.02230
  19        2PY         0.00003   0.00007  -0.00030  -0.01104  -0.00394
  20        2PZ        -0.00000   0.00007  -0.04738  -0.05134   0.04242
  21        3S          0.00093   0.00634   0.19299   0.31173  -0.31367
  22        3PX         0.00051  -0.00170  -0.00860  -0.01269   0.01383
  23        3PY        -0.00018  -0.00046   0.00034  -0.00765  -0.00297
  24        3PZ        -0.00020  -0.00086  -0.03544  -0.03104   0.02448
  25        4XX        -0.00011  -0.00096   0.00158   0.00599  -0.00686
  26        4YY         0.00003  -0.00117  -0.00027   0.00374  -0.00434
  27        4ZZ        -0.00004  -0.00124   0.01316   0.01440  -0.01336
  28        4XY         0.00002   0.00007   0.00021   0.00072  -0.00026
  29        4XZ        -0.00010   0.00032   0.00520   0.00526  -0.00499
  30        4YZ         0.00002   0.00009   0.00039   0.00198   0.00035
  31 3   F  1S          0.00025  -0.00007  -0.17197   0.13923   0.01355
  32        2S          0.00145  -0.00040   0.38234  -0.31655  -0.03112
  33        2PX        -0.00022   0.00022  -0.02872   0.02246   0.00325
  34        2PY        -0.00011  -0.00000  -0.07366   0.03730  -0.00423
  35        2PZ        -0.00006  -0.00007   0.04667  -0.02141  -0.01210
  36        3S         -0.00505   0.00097   0.36288  -0.29137  -0.02799
  37        3PX         0.00131  -0.00106  -0.01394   0.01279   0.00202
  38        3PY         0.00085  -0.00005  -0.04334   0.01627  -0.00373
  39        3PZ         0.00010   0.00040   0.02789  -0.00823  -0.00778
  40        4XX         0.00079  -0.00018   0.00612  -0.00748  -0.00088
  41        4YY         0.00090  -0.00031   0.01678  -0.01020   0.00060
  42        4ZZ         0.00105  -0.00028   0.00903  -0.00698  -0.00232
  43        4XY        -0.00026   0.00016   0.00585  -0.00330  -0.00022
  44        4XZ         0.00007  -0.00015  -0.00364   0.00189   0.00058
  45        4YZ        -0.00004  -0.00008  -0.00962   0.00292   0.00108
  46 4   F  1S          0.00013  -0.00018  -0.08183  -0.10674  -0.17912
  47        2S          0.00076  -0.00101   0.17624   0.23751   0.40188
  48        2PX        -0.00018   0.00024  -0.02028  -0.02187  -0.03374
  49        2PY         0.00005   0.00004   0.03899   0.02829   0.04547
  50        2PZ        -0.00011  -0.00012   0.01599   0.02343   0.01631
  51        3S         -0.00243   0.00332   0.18268   0.23063   0.38598
  52        3PX         0.00100  -0.00133  -0.01316  -0.01328  -0.02098
  53        3PY        -0.00034  -0.00002   0.03011   0.01712   0.02716
  54        3PZ         0.00052   0.00070   0.01221   0.01579   0.00889
  55        4XX         0.00033  -0.00046   0.00278   0.00548   0.00996
  56        4YY         0.00053  -0.00084   0.00901   0.00754   0.01367
  57        4ZZ         0.00063  -0.00065   0.00127   0.00463   0.00636
  58        4XY         0.00018  -0.00014  -0.00610  -0.00428  -0.00667
  59        4XZ        -0.00004  -0.00020  -0.00275  -0.00267  -0.00298
  60        4YZ         0.00008   0.00004   0.00490   0.00416   0.00393
  61 5   S  1S          0.00027   0.00033   0.00481   0.00518   0.00042
  62        2S         -0.00087  -0.00139  -0.02280  -0.02336  -0.00182
  63        2PX        -0.51197   0.81935  -0.00663  -0.00114  -0.00049
  64        2PY        -0.34375   0.03518  -0.00027   0.00537   0.00184
  65        2PZ         0.77532   0.55620  -0.00074  -0.00509   0.00278
  66        3S          0.00074   0.00052   0.03616   0.04608   0.00412
  67        3PX        -0.01605   0.02586   0.01551   0.00369   0.00095
  68        3PY        -0.01219   0.00088   0.00093  -0.01056  -0.00378
  69        3PZ         0.02602   0.01850   0.00146   0.01093  -0.00609
  70        4S          0.00340  -0.00080   0.01091  -0.00190  -0.00032
  71        4PX         0.00281  -0.00363   0.00370   0.00384   0.00210
  72        4PY         0.00082  -0.00057   0.00534  -0.01224  -0.00716
  73        4PZ        -0.00112  -0.00129  -0.00268   0.01290  -0.01142
  74        5XX        -0.00103   0.00059   0.00686   0.00057   0.00085
  75        5YY         0.00124  -0.00034  -0.00208  -0.00192  -0.00073
  76        5ZZ         0.00010  -0.00191  -0.00152  -0.00018  -0.00031
  77        5XY         0.00034   0.00018   0.00293  -0.00061  -0.00208
  78        5XZ        -0.00119  -0.00077  -0.00042   0.00128  -0.00238
  79        5YZ        -0.00120  -0.00009  -0.00157  -0.00293  -0.00033
  80 6   O  1S          0.00021   0.00019  -0.00396  -0.00493  -0.00140
  81        2S         -0.00035  -0.00111   0.01007   0.00807   0.00483
  82        2PX        -0.00003  -0.00018   0.00282   0.00200   0.00113
  83        2PY        -0.00005  -0.00001   0.00022  -0.00080  -0.00049
  84        2PZ        -0.00016  -0.00037   0.00456   0.00494   0.00141
  85        3S          0.00295   0.00677   0.00163   0.02018  -0.00489
  86        3PX         0.00145   0.00158  -0.00061   0.00095  -0.00056
  87        3PY         0.00043  -0.00006  -0.00093   0.00202   0.00171
  88        3PZ         0.00205   0.00459   0.00078   0.00405  -0.00024
  89        4XX         0.00021  -0.00078   0.00048  -0.00102   0.00061
  90        4YY        -0.00004  -0.00060   0.00037  -0.00110   0.00044
  91        4ZZ        -0.00036  -0.00015   0.00163  -0.00001   0.00115
  92        4XY         0.00005  -0.00001  -0.00006  -0.00009   0.00004
  93        4XZ         0.00038  -0.00018   0.00051   0.00059   0.00009
  94        4YZ         0.00022  -0.00006  -0.00018   0.00021   0.00014
  95 7   O  1S         -0.00063  -0.00016  -0.00628  -0.01277  -0.00018
  96        2S          0.00174  -0.00007   0.01413   0.03059   0.00015
  97        2PX         0.00040   0.00006   0.00327   0.00521   0.00009
  98        2PY         0.00094   0.00014   0.00542   0.00981  -0.00048
  99        2PZ        -0.00084  -0.00003  -0.00498  -0.00945  -0.00099
 100        3S         -0.01020  -0.00021   0.00945   0.00879   0.00234
 101        3PX        -0.00165  -0.00083  -0.00056   0.00095  -0.00082
 102        3PY        -0.00446  -0.00042   0.00042   0.00195   0.00218
 103        3PZ         0.00349  -0.00053  -0.00117  -0.00150   0.00154
 104        4XX         0.00060  -0.00037   0.00000   0.00073  -0.00020
 105        4YY         0.00075  -0.00018   0.00065   0.00168   0.00024
 106        4ZZ         0.00108   0.00024   0.00073   0.00175  -0.00022
 107        4XY         0.00031  -0.00024   0.00041   0.00072  -0.00012
 108        4XZ        -0.00037   0.00017  -0.00045  -0.00056  -0.00007
 109        4YZ        -0.00056  -0.00035  -0.00081  -0.00189  -0.00005
 110 8   O  1S          0.00006  -0.00013  -0.00316  -0.00321   0.00097
 111        2S          0.00038  -0.00049   0.00717   0.00623  -0.00304
 112        2PX         0.00010  -0.00001   0.00157   0.00079  -0.00036
 113        2PY        -0.00009  -0.00005  -0.00237  -0.00271   0.00061
 114        2PZ         0.00006   0.00012  -0.00170  -0.00095   0.00009
 115        3S         -0.00170   0.00211   0.00314   0.00950   0.00333
 116        3PX        -0.00058  -0.00024  -0.00002   0.00004  -0.00149
 117        3PY         0.00143   0.00019  -0.00006  -0.00220  -0.00194
 118        3PZ        -0.00034  -0.00087  -0.00023  -0.00293   0.00049
 119        4XX         0.00032  -0.00060   0.00003  -0.00036  -0.00047
 120        4YY        -0.00053  -0.00041   0.00059   0.00022   0.00005
 121        4ZZ         0.00064  -0.00014   0.00004   0.00022  -0.00017
 122        4XY        -0.00003   0.00042  -0.00016  -0.00032   0.00016
 123        4XZ        -0.00023   0.00012  -0.00004   0.00009   0.00002
 124        4YZ         0.00014   0.00034   0.00030   0.00070  -0.00011
 125 9   H  1S         -0.00008  -0.00020   0.00079   0.00026  -0.00032
 126        2S         -0.00041  -0.00085  -0.00082   0.00221   0.00054
                          16        17        18        19        20
                           O         O         O         O         O
     Eigenvalues --    -1.20684  -1.07557  -1.01868  -0.79373  -0.68121
   1 1   C  1S         -0.00358  -0.00470  -0.00261  -0.13443   0.08207
   2        2S         -0.00296   0.00543   0.00410   0.31106  -0.20343
   3        2PX        -0.03319  -0.01339  -0.00760  -0.15436  -0.22949
   4        2PY         0.00134  -0.00027   0.00266  -0.01530  -0.06628
   5        2PZ        -0.00529  -0.00234   0.00274  -0.00463   0.02727
   6        3S          0.04400   0.02253   0.01009   0.23556  -0.11945
   7        3PX        -0.01990  -0.00974  -0.00467  -0.08902  -0.00834
   8        3PY        -0.00089   0.00277   0.00643  -0.01558  -0.00672
   9        3PZ        -0.00157  -0.00445   0.00303   0.00273   0.00534
  10        4XX         0.00666   0.00198   0.00066   0.00655   0.01259
  11        4YY        -0.00147  -0.00166  -0.00008  -0.01115  -0.00043
  12        4ZZ        -0.00309  -0.00064  -0.00111  -0.01202   0.00237
  13        4XY         0.00213  -0.00025  -0.00146   0.00327  -0.00247
  14        4XZ        -0.00060   0.00089  -0.00101  -0.00005   0.00176
  15        4YZ        -0.00125   0.00067   0.00049  -0.00068   0.00394
  16 2   F  1S          0.02165  -0.00054   0.00366   0.04774  -0.03675
  17        2S         -0.04968   0.00340  -0.01061  -0.10465   0.07998
  18        2PX        -0.00040  -0.00049  -0.00221  -0.07233  -0.00337
  19        2PY         0.00046   0.00049   0.00074  -0.01010  -0.00653
  20        2PZ         0.00715  -0.00012  -0.00036  -0.09193   0.18977
  21        3S         -0.04731  -0.00332  -0.00582  -0.14813   0.11743
  22        3PX         0.00010   0.00231  -0.00318  -0.03818  -0.00621
  23        3PY        -0.00024   0.00106   0.00032  -0.00443  -0.00443
  24        3PZ         0.00591  -0.00006   0.00030  -0.05416   0.11649
  25        4XX        -0.00067   0.00060  -0.00061   0.00311   0.00380
  26        4YY        -0.00158   0.00090  -0.00159  -0.00210   0.00189
  27        4ZZ        -0.00313   0.00130  -0.00157   0.00807  -0.01534
  28        4XY         0.00029  -0.00048  -0.00034   0.00072   0.00048
  29        4XZ        -0.00063  -0.00006   0.00026   0.00681  -0.00097
  30        4YZ        -0.00008   0.00005   0.00015   0.00079   0.00028
  31 3   F  1S          0.00168   0.00600   0.00258   0.05147  -0.05410
  32        2S         -0.00134  -0.01611  -0.00721  -0.11472   0.11273
  33        2PX        -0.00314  -0.00300  -0.00212  -0.08470   0.01458
  34        2PY         0.00110  -0.00018   0.00054  -0.10198   0.25774
  35        2PZ        -0.00115  -0.00038   0.00123   0.06019  -0.16851
  36        3S         -0.01174  -0.01210  -0.00536  -0.15640   0.19067
  37        3PX         0.00065  -0.00384  -0.00253  -0.04375   0.00082
  38        3PY         0.00297   0.00065   0.00076  -0.05985   0.14970
  39        3PZ        -0.00181  -0.00128   0.00048   0.03589  -0.09865
  40        4XX         0.00134  -0.00051  -0.00021   0.00200   0.00260
  41        4YY         0.00036  -0.00194  -0.00092   0.00542  -0.01480
  42        4ZZ         0.00050  -0.00196  -0.00110   0.00004  -0.00612
  43        4XY        -0.00002   0.00047  -0.00011   0.00668  -0.00115
  44        4XZ         0.00005   0.00006  -0.00058  -0.00392   0.00085
  45        4YZ         0.00019   0.00005  -0.00003  -0.00591   0.01164
  46 4   F  1S          0.01921   0.00263  -0.00177   0.04609  -0.03794
  47        2S         -0.04246  -0.00524   0.00483  -0.10166   0.08173
  48        2PX         0.00048  -0.00134   0.00040  -0.08132   0.02995
  49        2PY        -0.00536  -0.00005  -0.00030   0.06900  -0.17374
  50        2PZ        -0.00308  -0.00057   0.00001   0.03440  -0.06789
  51        3S         -0.04539  -0.00831   0.00416  -0.14111   0.12282
  52        3PX         0.00217   0.00037   0.00156  -0.04407   0.01423
  53        3PY        -0.00500  -0.00016   0.00058   0.04237  -0.10759
  54        3PZ        -0.00184  -0.00116   0.00053   0.01992  -0.04206
  55        4XX        -0.00033   0.00033   0.00016   0.00450   0.00210
  56        4YY        -0.00163   0.00002   0.00062   0.00440  -0.01242
  57        4ZZ        -0.00088   0.00016   0.00065  -0.00102  -0.00107
  58        4XY         0.00096  -0.00016   0.00002  -0.00653   0.00430
  59        4XZ         0.00020   0.00049  -0.00007  -0.00316   0.00134
  60        4YZ        -0.00054   0.00012  -0.00000   0.00366  -0.00669
  61 5   S  1S          0.05206   0.01237  -0.00072   0.02831   0.03051
  62        2S         -0.23303  -0.05513   0.00447  -0.12277  -0.13543
  63        2PX         0.03293   0.01215  -0.00573  -0.11515  -0.04893
  64        2PY         0.04581  -0.06939  -0.06293  -0.03233  -0.03379
  65        2PZ        -0.03339   0.12160  -0.05486  -0.00231  -0.00912
  66        3S          0.48363   0.11576  -0.00778   0.29919   0.32753
  67        3PX        -0.06180  -0.02430   0.01385   0.28864   0.12384
  68        3PY        -0.09116   0.15554   0.14076   0.08198   0.08569
  69        3PZ         0.07078  -0.26996   0.12347   0.00479   0.02234
  70        4S         -0.05178  -0.02200  -0.01314   0.01820   0.14451
  71        4PX         0.00207   0.00240  -0.00071  -0.01350   0.04739
  72        4PY        -0.00140  -0.02310  -0.01994   0.00053   0.02251
  73        4PZ        -0.00858   0.02653  -0.00941  -0.00713  -0.00016
  74        5XX        -0.03752   0.00273   0.00361   0.04551   0.00214
  75        5YY        -0.00619  -0.02987   0.03634  -0.01568  -0.00715
  76        5ZZ         0.01077   0.02797  -0.03055  -0.03181  -0.01555
  77        5XY         0.01391  -0.02033  -0.01639   0.00486  -0.00605
  78        5XZ        -0.00734   0.04469  -0.02025  -0.00121  -0.00003
  79        5YZ        -0.04017   0.04155   0.02887   0.01414   0.01336
  80 6   O  1S         -0.07003  -0.15797   0.08450   0.05114   0.04785
  81        2S          0.14888   0.34716  -0.19172  -0.11630  -0.10389
  82        2PX         0.02655   0.05175  -0.02678   0.03401   0.04092
  83        2PY        -0.00353   0.00534   0.01309   0.00566   0.00913
  84        2PZ         0.07037   0.11567  -0.05166  -0.00103   0.04285
  85        3S          0.14592   0.32594  -0.16923  -0.13614  -0.16311
  86        3PX         0.01344   0.01730  -0.00912   0.01783   0.01213
  87        3PY         0.00146   0.00653   0.00684   0.00056   0.00046
  88        3PZ         0.03261   0.03568  -0.01408   0.00096   0.01422
  89        4XX        -0.00212  -0.00294  -0.00001   0.00355   0.00397
  90        4YY        -0.00475  -0.00680   0.00214   0.00059   0.00163
  91        4ZZ         0.01152   0.00909  -0.00504   0.00026   0.00507
  92        4XY        -0.00085   0.00017   0.00068   0.00051   0.00056
  93        4XZ         0.00742   0.00915  -0.00401   0.00327   0.00325
  94        4YZ        -0.00084   0.00117   0.00149   0.00053   0.00069
  95 7   O  1S         -0.14813   0.11681   0.02363   0.04946   0.05207
  96        2S          0.32441  -0.26186  -0.05390  -0.11658  -0.11794
  97        2PX         0.04401  -0.03413  -0.00647   0.04529   0.04625
  98        2PY         0.10787  -0.06448   0.00195   0.00620   0.05211
  99        2PZ        -0.10648   0.05784   0.02402   0.00557  -0.02326
 100        3S          0.25668  -0.20670  -0.04551  -0.11577  -0.16727
 101        3PX         0.01208  -0.00729  -0.00249   0.02384   0.01697
 102        3PY         0.02654  -0.00397   0.00453   0.00821   0.02034
 103        3PZ        -0.02410   0.00263   0.00838  -0.00337  -0.00995
 104        4XX        -0.00358   0.00087   0.00037   0.00223   0.00229
 105        4YY         0.00705  -0.00226   0.00183   0.00038   0.00408
 106        4ZZ         0.00722   0.00067  -0.00288  -0.00151   0.00110
 107        4XY         0.00635  -0.00440   0.00045   0.00443   0.00397
 108        4XZ        -0.00675   0.00317   0.00105  -0.00375  -0.00285
 109        4YZ        -0.01553   0.00451   0.00134  -0.00036  -0.00328
 110 8   O  1S         -0.04445  -0.05452  -0.19815   0.03777   0.03303
 111        2S          0.08944   0.11790   0.43640  -0.08704  -0.07032
 112        2PX         0.00603   0.00145   0.00158   0.04809   0.06545
 113        2PY        -0.03140  -0.01444  -0.04165  -0.03705  -0.09218
 114        2PZ        -0.01999  -0.03222  -0.06870   0.00441  -0.00357
 115        3S          0.11271   0.13042   0.47405  -0.09999  -0.11798
 116        3PX         0.00645   0.00376   0.00055   0.02717   0.03228
 117        3PY        -0.02311  -0.01407  -0.02532  -0.01825  -0.04194
 118        3PZ        -0.01613  -0.02064  -0.05040   0.00626   0.00449
 119        4XX        -0.00349  -0.00202  -0.00539   0.00110   0.00210
 120        4YY         0.00340   0.00243   0.00515   0.00083   0.00502
 121        4ZZ        -0.00087   0.00087   0.00154  -0.00181   0.00002
 122        4XY        -0.00478  -0.00367  -0.01167  -0.00041  -0.00035
 123        4XZ        -0.00061   0.00120   0.00497  -0.00443  -0.00535
 124        4YZ         0.00443   0.00169   0.00150   0.00325   0.00628
 125 9   H  1S          0.01111   0.02264   0.07310  -0.03334  -0.04806
 126        2S          0.00369   0.01114   0.00771  -0.01430  -0.02730
                          21        22        23        24        25
                           O         O         O         O         O
     Eigenvalues --    -0.61561  -0.60604  -0.59365  -0.55248  -0.51281
   1 1   C  1S          0.01799   0.00003   0.00878  -0.00828   0.00797
   2        2S         -0.03994  -0.00097  -0.02025   0.02179  -0.02170
   3        2PX         0.00842  -0.08288   0.19205  -0.03463   0.01540
   4        2PY         0.30186  -0.08160  -0.14966  -0.05640   0.02201
   5        2PZ        -0.14522  -0.30406  -0.10248  -0.03565  -0.01864
   6        3S         -0.05067  -0.00081  -0.01451   0.00569  -0.01970
   7        3PX         0.00667  -0.02272   0.06550  -0.01756   0.03095
   8        3PY         0.08388  -0.03566  -0.05071  -0.01752   0.00990
   9        3PZ        -0.03182  -0.10096  -0.03541  -0.01924  -0.00066
  10        4XX        -0.00283  -0.00036   0.00683  -0.00273   0.00413
  11        4YY         0.00777   0.00657  -0.00069  -0.00159  -0.00180
  12        4ZZ        -0.00351  -0.00731  -0.00229   0.00162  -0.00067
  13        4XY         0.01078  -0.00248  -0.00826  -0.01095   0.01197
  14        4XZ        -0.00598  -0.01118  -0.00727  -0.00679  -0.01190
  15        4YZ        -0.01357  -0.00406   0.00501  -0.00005   0.00037
  16 2   F  1S         -0.02447  -0.05091  -0.00942  -0.00430  -0.00200
  17        2S          0.04557   0.09052   0.01823  -0.00177   0.00124
  18        2PX         0.07511   0.12518   0.14015  -0.04567  -0.01005
  19        2PY         0.14488  -0.02139  -0.07064  -0.05133   0.05735
  20        2PZ         0.13645   0.33232   0.02393   0.06881   0.06109
  21        3S          0.10198   0.22607   0.03997   0.03917   0.00746
  22        3PX         0.04384   0.06800   0.08739  -0.03783  -0.01304
  23        3PY         0.08840  -0.01430  -0.04235  -0.03616   0.04079
  24        3PZ         0.07763   0.18927   0.01234   0.03895   0.04178
  25        4XX        -0.00395  -0.00867  -0.00508  -0.00162   0.00156
  26        4YY        -0.00331  -0.00677  -0.00071  -0.00519  -0.00204
  27        4ZZ        -0.00785  -0.02107   0.00089  -0.00815  -0.00459
  28        4XY        -0.00436   0.00083   0.00123   0.00101   0.00004
  29        4XZ        -0.00421  -0.00634  -0.00751   0.00205  -0.00012
  30        4YZ        -0.00813   0.00129   0.00391   0.00290  -0.00294
  31 3   F  1S          0.04524   0.01033  -0.00464  -0.00269   0.00216
  32        2S         -0.07773  -0.01805   0.01002   0.00088   0.00465
  33        2PX        -0.16508  -0.10241   0.18322  -0.05344   0.16928
  34        2PY        -0.26099  -0.16509  -0.08916  -0.00220  -0.10004
  35        2PZ         0.19818  -0.15607  -0.10474  -0.11399   0.04059
  36        3S         -0.20840  -0.04778   0.01840   0.02038  -0.02789
  37        3PX        -0.09276  -0.06336   0.11714  -0.03808   0.11794
  38        3PY        -0.14437  -0.09707  -0.05741  -0.00623  -0.06139
  39        3PZ         0.11080  -0.09861  -0.06417  -0.07311   0.02163
  40        4XX         0.00958   0.00418  -0.00565   0.00030  -0.00188
  41        4YY         0.01375   0.01089   0.00914  -0.00000   0.00821
  42        4ZZ         0.01099  -0.00796  -0.00410  -0.00649   0.00487
  43        4XY         0.00661   0.00738  -0.00632   0.00288  -0.00512
  44        4XZ        -0.00514   0.00152   0.00744  -0.00017   0.00309
  45        4YZ        -0.00660   0.00524   0.00088   0.00333  -0.00137
  46 4   F  1S         -0.03540   0.02355   0.03554   0.00745  -0.00153
  47        2S          0.06612  -0.04255  -0.05918  -0.01042   0.00256
  48        2PX         0.15105  -0.14836  -0.06261  -0.05346   0.03647
  49        2PY        -0.11085   0.12921   0.25482   0.06954   0.00849
  50        2PZ        -0.16950  -0.05938   0.09446   0.01756  -0.07811
  51        3S          0.14953  -0.10613  -0.16498  -0.03583   0.00340
  52        3PX         0.08873  -0.08838  -0.02657  -0.02995   0.02238
  53        3PY        -0.06026   0.07258   0.14993   0.04343   0.00621
  54        3PZ        -0.10091  -0.03886   0.05299   0.01056  -0.05703
  55        4XX        -0.00892   0.00894   0.00498   0.00215  -0.00032
  56        4YY        -0.00457   0.00720   0.01759   0.00458   0.00137
  57        4ZZ        -0.00814  -0.00024   0.00809   0.00282  -0.00305
  58        4XY         0.00489  -0.00740  -0.00337  -0.00304   0.00132
  59        4XZ         0.00687   0.00072  -0.00075  -0.00099   0.00155
  60        4YZ        -0.00612  -0.00336   0.00443   0.00038  -0.00307
  61 5   S  1S          0.01042  -0.00729   0.02238  -0.02067   0.00050
  62        2S         -0.04480   0.02953  -0.09310   0.08529   0.00004
  63        2PX         0.04743  -0.05109   0.09122  -0.01841  -0.05191
  64        2PY        -0.04950   0.04364  -0.03131  -0.12569   0.08711
  65        2PZ        -0.01289   0.04249  -0.02051  -0.07805  -0.11837
  66        3S          0.11921  -0.08911   0.26825  -0.25719   0.01534
  67        3PX        -0.12343   0.13138  -0.23525   0.04741   0.14039
  68        3PY         0.12903  -0.11409   0.08244   0.33009  -0.23389
  69        3PZ         0.03267  -0.11189   0.05244   0.20915   0.32315
  70        4S          0.02638   0.01321   0.00348  -0.00773  -0.01590
  71        4PX        -0.01389   0.02652  -0.04358   0.00083   0.04896
  72        4PY         0.02922  -0.01053   0.01215   0.06379  -0.04595
  73        4PZ        -0.00641  -0.01720   0.00283   0.04784   0.04841
  74        5XX        -0.01337   0.00917  -0.01452   0.00683  -0.02256
  75        5YY         0.00467   0.00119  -0.00121  -0.00732   0.00106
  76        5ZZ         0.00084  -0.00605  -0.00329   0.02950   0.01367
  77        5XY         0.01248   0.00125  -0.01361  -0.01351  -0.00160
  78        5XZ        -0.01430  -0.01304  -0.01396  -0.00888  -0.00289
  79        5YZ         0.00573  -0.01263   0.01604   0.01323  -0.00670
  80 6   O  1S          0.02184   0.00092   0.04357  -0.07030  -0.06620
  81        2S         -0.04664  -0.00293  -0.09836   0.15182   0.13632
  82        2PX        -0.00351   0.04360  -0.01396  -0.07561  -0.07377
  83        2PY         0.02517  -0.02010   0.00878   0.10605  -0.08289
  84        2PZ         0.04878  -0.02631   0.11915  -0.19129  -0.24488
  85        3S         -0.08362  -0.00921  -0.14815   0.27592   0.29918
  86        3PX        -0.00335   0.02427  -0.00799  -0.02960  -0.02825
  87        3PY         0.00977  -0.00973   0.00332   0.05689  -0.05129
  88        3PZ         0.02038  -0.01681   0.05814  -0.08752  -0.10724
  89        4XX         0.00008   0.00291  -0.00226  -0.00440  -0.00489
  90        4YY         0.00059  -0.00024  -0.00078  -0.00290  -0.00383
  91        4ZZ         0.00635  -0.00388   0.01215  -0.01614  -0.01968
  92        4XY         0.00151  -0.00088   0.00047   0.00389  -0.00399
  93        4XZ        -0.00003   0.00270   0.00015  -0.00707  -0.00576
  94        4YZ         0.00207  -0.00212   0.00141   0.00799  -0.00737
  95 7   O  1S          0.01161  -0.02152   0.05093  -0.05506   0.06687
  96        2S         -0.02478   0.04831  -0.11591   0.12082  -0.13928
  97        2PX        -0.05309   0.02713  -0.05643  -0.04316   0.23144
  98        2PY         0.06337  -0.08690   0.14066   0.00807   0.21872
  99        2PZ        -0.00512  -0.00336  -0.08016   0.28674  -0.14315
 100        3S         -0.03596   0.07666  -0.17625   0.21615  -0.31335
 101        3PX        -0.03201   0.01379  -0.03157  -0.01496   0.11772
 102        3PY         0.02972  -0.04197   0.06778   0.01862   0.09875
 103        3PZ        -0.00087  -0.00425  -0.03468   0.14577  -0.04785
 104        4XX        -0.00276   0.00184  -0.00497  -0.00025   0.00913
 105        4YY         0.00667  -0.00862   0.01091   0.00776   0.01259
 106        4ZZ        -0.00016   0.00157   0.00385  -0.02345   0.00471
 107        4XY        -0.00192  -0.00002  -0.00199   0.00121   0.01516
 108        4XZ         0.00370  -0.00326   0.00325   0.00800  -0.01235
 109        4YZ        -0.00245   0.00401  -0.00960   0.01017  -0.00808
 110 8   O  1S          0.02451  -0.02146   0.02669   0.01173  -0.02751
 111        2S         -0.05476   0.04963  -0.05813  -0.01598   0.06199
 112        2PX         0.05474  -0.05733   0.03765   0.12803   0.02881
 113        2PY        -0.11859   0.13237  -0.18811  -0.19388   0.02509
 114        2PZ        -0.00697  -0.00885  -0.00772   0.05343   0.14726
 115        3S         -0.08439   0.06793  -0.08678  -0.07494   0.10553
 116        3PX         0.03298  -0.03708   0.01759   0.07433   0.02079
 117        3PY        -0.06342   0.07399  -0.10903  -0.10351   0.00776
 118        3PZ         0.00353  -0.00881   0.00018   0.04704   0.09341
 119        4XX         0.00010   0.00046  -0.00146   0.00353   0.00117
 120        4YY         0.00436  -0.00453   0.00996   0.00965   0.00194
 121        4ZZ        -0.00128   0.00295  -0.00066  -0.00207  -0.01092
 122        4XY         0.00078  -0.00045   0.00193  -0.00009  -0.00275
 123        4XZ        -0.00488   0.00439  -0.00386  -0.00825  -0.00059
 124        4YZ         0.00696  -0.00739   0.01142   0.00753  -0.00463
 125 9   H  1S         -0.04976   0.05767  -0.06607  -0.09975  -0.03757
 126        2S         -0.03246   0.03138  -0.04442  -0.06001  -0.01893
                          26        27        28        29        30
                           O         O         O         O         O
     Eigenvalues --    -0.49864  -0.48742  -0.48022  -0.46230  -0.45535
   1 1   C  1S          0.01494   0.00004   0.01388   0.00296   0.00084
   2        2S         -0.04440  -0.00129  -0.03554  -0.00648  -0.00409
   3        2PX         0.02174   0.01211   0.02848   0.02373   0.01361
   4        2PY         0.00265  -0.05084   0.04418   0.00825  -0.02351
   5        2PZ        -0.00142  -0.08073  -0.01275   0.01212   0.02022
   6        3S         -0.01473   0.00307  -0.04748  -0.01761   0.01269
   7        3PX         0.09364  -0.00286   0.08047  -0.00542   0.03542
   8        3PY         0.03311   0.02371  -0.05233   0.05126   0.08144
   9        3PZ        -0.01292   0.05025   0.04072  -0.02866  -0.05409
  10        4XX         0.02238  -0.00090   0.01508  -0.00494   0.00857
  11        4YY        -0.00788   0.03164   0.00048  -0.00108  -0.01080
  12        4ZZ        -0.00643  -0.03104  -0.01030   0.00473   0.00621
  13        4XY         0.01450  -0.00159  -0.00750  -0.00169  -0.01308
  14        4XZ        -0.00520   0.00768   0.00982   0.00458   0.01212
  15        4YZ         0.01191   0.01279  -0.02714  -0.00419   0.01755
  16 2   F  1S         -0.00009  -0.00637   0.00067   0.00035   0.00044
  17        2S          0.00415   0.01221   0.00538  -0.00585   0.00233
  18        2PX         0.12238   0.26181   0.29440   0.00838   0.23541
  19        2PY         0.14607   0.10602  -0.30327  -0.02683   0.30883
  20        2PZ         0.00402   0.11876  -0.02704  -0.06168  -0.22916
  21        3S         -0.01780   0.00806  -0.03126   0.01740   0.00261
  22        3PX         0.07849   0.18566   0.20282   0.00428   0.15480
  23        3PY         0.10113   0.07466  -0.20934  -0.02536   0.20143
  24        3PZ         0.01189   0.08070  -0.00867  -0.04577  -0.15325
  25        4XX         0.00114  -0.00727  -0.00307  -0.00355  -0.00435
  26        4YY         0.00129   0.00417   0.00554  -0.00252  -0.00200
  27        4ZZ         0.00048  -0.00314   0.00398   0.00043   0.01119
  28        4XY        -0.00110  -0.00173   0.00265  -0.00082  -0.00540
  29        4XZ        -0.00500  -0.01102  -0.01089   0.00022  -0.00435
  30        4YZ        -0.00639  -0.00404   0.01097   0.00312  -0.00725
  31 3   F  1S          0.00161  -0.00013   0.00068   0.00135   0.00573
  32        2S          0.00699  -0.00013  -0.00397   0.01051  -0.00974
  33        2PX         0.42937  -0.07701  -0.12410  -0.08181  -0.22907
  34        2PY        -0.03270   0.27277  -0.07363  -0.02630   0.19893
  35        2PZ         0.10730   0.39900  -0.00825  -0.08220  -0.21187
  36        3S         -0.04722   0.00312   0.01528  -0.04151  -0.06338
  37        3PX         0.28825  -0.05369  -0.09853  -0.05135  -0.14754
  38        3PY        -0.01039   0.18510  -0.04873  -0.01101   0.14256
  39        3PZ         0.06565   0.27087  -0.00873  -0.06022  -0.14666
  40        4XX        -0.00384   0.00153   0.00410   0.00686   0.00906
  41        4YY         0.00581  -0.01417  -0.00132   0.00655  -0.00477
  42        4ZZ         0.00901   0.01218  -0.00561   0.00299  -0.00070
  43        4XY        -0.01318  -0.00059   0.00493   0.00198   0.00327
  44        4XZ         0.00727  -0.00580  -0.00180   0.00010  -0.00054
  45        4YZ        -0.00275  -0.00677  -0.00143   0.00200   0.00950
  46 4   F  1S          0.00037   0.00714  -0.00139  -0.00142   0.00062
  47        2S          0.00520  -0.01370   0.00920  -0.01012   0.00181
  48        2PX         0.10127  -0.25035   0.31310   0.01206   0.14096
  49        2PY         0.05491   0.01789  -0.07867  -0.03379   0.26044
  50        2PZ        -0.09707   0.18724   0.27401   0.01950  -0.14542
  51        3S         -0.02313  -0.01407  -0.02427   0.03698  -0.00094
  52        3PX         0.06594  -0.17781   0.21928   0.00366   0.09160
  53        3PY         0.02839   0.00920  -0.06157  -0.01861   0.17170
  54        3PZ        -0.07182   0.12950   0.18578   0.02328  -0.09263
  55        4XX         0.00187   0.00913  -0.00718  -0.00581  -0.00293
  56        4YY         0.00490  -0.00338  -0.00038  -0.00749   0.00977
  57        4ZZ        -0.00111   0.00096   0.01213  -0.00339  -0.00193
  58        4XY         0.00340  -0.00748   0.01092   0.00059  -0.00133
  59        4XZ         0.00331  -0.00576   0.00017  -0.00048   0.00516
  60        4YZ        -0.00290   0.00632   0.00640   0.00138   0.00094
  61 5   S  1S          0.00480  -0.00156   0.00465  -0.00456   0.00150
  62        2S         -0.01886   0.00749  -0.01994   0.01953  -0.00539
  63        2PX        -0.09323  -0.00306  -0.05449   0.00442  -0.02055
  64        2PY        -0.04594   0.00223  -0.00286   0.04165   0.00534
  65        2PZ         0.05895  -0.01187  -0.00689   0.05924  -0.01473
  66        3S          0.05693  -0.01591   0.05362  -0.05385   0.02128
  67        3PX         0.25604   0.00751   0.15062  -0.01493   0.06020
  68        3PY         0.12617  -0.00683   0.01031  -0.11143  -0.01618
  69        3PZ        -0.16012   0.03020   0.01634  -0.16070   0.04166
  70        4S          0.04117  -0.00701   0.02711   0.00472  -0.00158
  71        4PX         0.08453   0.00602   0.05165   0.01787   0.01774
  72        4PY        -0.02111  -0.03113   0.07135  -0.10434   0.04897
  73        4PZ         0.01662  -0.04948  -0.04091   0.02574  -0.05586
  74        5XX        -0.01659  -0.00105  -0.02501  -0.01348  -0.01059
  75        5YY         0.00966   0.00527   0.01219   0.00958   0.00877
  76        5ZZ         0.01902  -0.00223   0.01251   0.00691   0.00129
  77        5XY        -0.02226  -0.00392  -0.00857   0.02572   0.00879
  78        5XZ         0.01645  -0.01316   0.00499  -0.00318  -0.01362
  79        5YZ         0.00730   0.00714  -0.01814   0.07623  -0.01443
  80 6   O  1S          0.01628  -0.00856  -0.00432   0.01075  -0.00578
  81        2S         -0.04086   0.02874   0.01415  -0.02034   0.01755
  82        2PX         0.15056  -0.01191   0.06019   0.09629   0.02922
  83        2PY         0.03909  -0.01544   0.03569  -0.22327   0.02255
  84        2PZ         0.03097  -0.04513  -0.04969   0.06114  -0.06933
  85        3S         -0.04059   0.00078   0.00182  -0.04479   0.00114
  86        3PX         0.08656  -0.01157   0.03447   0.06268   0.01955
  87        3PY         0.02773  -0.00545   0.01449  -0.14775   0.00853
  88        3PZ         0.01573  -0.02764  -0.02806   0.02286  -0.04161
  89        4XX         0.00517   0.00347   0.00465   0.00559   0.00434
  90        4YY        -0.00177   0.00387   0.00207  -0.00062   0.00237
  91        4ZZ        -0.00491   0.00194  -0.00394   0.00381  -0.00304
  92        4XY         0.00126  -0.00045   0.00068  -0.00529   0.00089
  93        4XZ         0.01014  -0.00133   0.00353   0.00746   0.00145
  94        4YZ         0.00385  -0.00073   0.00109  -0.01578   0.00051
  95 7   O  1S         -0.04077   0.00136  -0.00070  -0.00920   0.00176
  96        2S          0.09032  -0.00362  -0.01424   0.02712  -0.01107
  97        2PX         0.09442   0.00027   0.14633  -0.09934   0.03350
  98        2PY        -0.19242   0.01023  -0.00770  -0.16986   0.03712
  99        2PZ         0.17214  -0.00349   0.02383  -0.04323  -0.03712
 100        3S          0.17310   0.00009   0.06252   0.00124   0.02939
 101        3PX         0.06018  -0.00476   0.09540  -0.07223   0.01681
 102        3PY        -0.09007   0.01253  -0.00426  -0.09062   0.02165
 103        3PZ         0.07744   0.00636   0.00511  -0.03188  -0.02348
 104        4XX         0.00717  -0.00062   0.00027  -0.00083  -0.00332
 105        4YY        -0.00990   0.00200  -0.00853  -0.00717  -0.00206
 106        4ZZ        -0.00682  -0.00123  -0.00926   0.01466  -0.00239
 107        4XY         0.00372  -0.00014   0.00817  -0.00768   0.00193
 108        4XZ        -0.00494  -0.00033  -0.00820   0.00135  -0.00248
 109        4YZ         0.01249   0.00013   0.00296   0.00364  -0.00139
 110 8   O  1S         -0.00275  -0.00776   0.00139  -0.06342   0.00175
 111        2S          0.00337   0.00844   0.00282   0.13692  -0.00372
 112        2PX         0.08541   0.03826   0.03383   0.19018   0.02736
 113        2PY         0.00668  -0.03557   0.02868  -0.08320   0.03285
 114        2PZ        -0.01682   0.04022  -0.02395   0.34530  -0.01774
 115        3S          0.02565   0.06083  -0.02408   0.28058  -0.01067
 116        3PX         0.05384   0.02922   0.01617   0.13414   0.01986
 117        3PY        -0.00169  -0.03153   0.02273  -0.06062   0.02093
 118        3PZ        -0.01667   0.02620  -0.01394   0.22451  -0.00530
 119        4XX        -0.00090  -0.00360   0.00215  -0.00139   0.00062
 120        4YY        -0.00247  -0.00137   0.00121   0.00271  -0.00091
 121        4ZZ         0.00098  -0.00747   0.00413  -0.02929   0.00085
 122        4XY        -0.00381  -0.00034  -0.00221  -0.00287  -0.00125
 123        4XZ        -0.00483  -0.00290  -0.00192  -0.01271  -0.00163
 124        4YZ         0.00168   0.00101  -0.00144   0.00118  -0.00194
 125 9   H  1S         -0.01716  -0.03400   0.00865  -0.19249   0.00894
 126        2S         -0.01028  -0.02201  -0.00232  -0.16197   0.00418
                          31        32        33        34        35
                           O         O         O         O         O
     Eigenvalues --    -0.44434  -0.42833  -0.40570  -0.39156  -0.36970
   1 1   C  1S          0.00085   0.00002   0.00324   0.03898   0.02527
   2        2S         -0.00095   0.00061  -0.00337  -0.07306  -0.04217
   3        2PX         0.01004   0.00070   0.01930   0.21199   0.12212
   4        2PY        -0.02094  -0.00839   0.00143   0.02028   0.01407
   5        2PZ        -0.02250  -0.01499  -0.00026   0.00683   0.00220
   6        3S         -0.00436  -0.00209  -0.03730  -0.27781  -0.21369
   7        3PX         0.00140  -0.00243   0.01300   0.06973   0.06089
   8        3PY         0.05045   0.02253  -0.02553  -0.01953   0.04036
   9        3PZ         0.03356   0.04833  -0.07040   0.03321  -0.02018
  10        4XX         0.00375   0.00101  -0.00273  -0.02500  -0.01135
  11        4YY         0.00315   0.00567   0.00217   0.01201   0.00548
  12        4ZZ        -0.00591  -0.00643   0.00047   0.01267   0.00787
  13        4XY        -0.01488  -0.00356   0.00194  -0.00367  -0.00662
  14        4XZ        -0.01733  -0.00468   0.00230  -0.00304   0.00279
  15        4YZ         0.00263   0.00200   0.00006   0.00024   0.00061
  16 2   F  1S          0.00094   0.00228  -0.00190  -0.00154  -0.00319
  17        2S         -0.00470  -0.00423  -0.01428   0.00052  -0.00055
  18        2PX        -0.29331  -0.12002  -0.00928  -0.11886  -0.11748
  19        2PY        -0.05568   0.42555   0.03226   0.01663  -0.04770
  20        2PZ         0.24986   0.10754  -0.01427  -0.04463  -0.01191
  21        3S         -0.01153  -0.02376   0.05810   0.02179   0.04389
  22        3PX        -0.19765  -0.07530  -0.01305  -0.09145  -0.08867
  23        3PY        -0.04544   0.28539   0.02428   0.01396  -0.03823
  24        3PZ         0.17259   0.07769  -0.02367  -0.03827  -0.01985
  25        4XX         0.00767   0.00349  -0.00800  -0.00175  -0.00323
  26        4YY         0.00071   0.00122  -0.00806  -0.00182  -0.00269
  27        4ZZ        -0.01253  -0.00465  -0.00642   0.00131  -0.00211
  28        4XY         0.00060  -0.00719  -0.00002   0.00031  -0.00024
  29        4XZ         0.00501   0.00105   0.00100   0.00247   0.00274
  30        4YZ         0.00316  -0.01033  -0.00155  -0.00151   0.00232
  31 3   F  1S          0.00127  -0.00052   0.00023  -0.00607   0.00050
  32        2S         -0.00106   0.00027   0.00636  -0.00652  -0.00289
  33        2PX        -0.06795   0.02288  -0.03864  -0.18395  -0.00049
  34        2PY         0.17808  -0.12387   0.01205  -0.02737  -0.02025
  35        2PZ         0.18674  -0.17020   0.01025  -0.01083   0.01072
  36        3S         -0.01478   0.00586  -0.01434   0.09097   0.00032
  37        3PX        -0.04320   0.01428  -0.02405  -0.13991  -0.00710
  38        3PY         0.11502  -0.08610   0.01575  -0.03654  -0.01555
  39        3PZ         0.11350  -0.11700   0.01541   0.00133   0.00875
  40        4XX         0.00293  -0.00096   0.00292  -0.00885  -0.00153
  41        4YY        -0.00421   0.00503   0.00066  -0.00657   0.00003
  42        4ZZ         0.00327  -0.00514   0.00561  -0.00858  -0.00061
  43        4XY        -0.00273   0.00192   0.00104   0.00345  -0.00102
  44        4XZ        -0.00557   0.00358   0.00006  -0.00225   0.00034
  45        4YZ        -0.00052   0.00225  -0.00096  -0.00046  -0.00091
  46 4   F  1S         -0.00103  -0.00170   0.00112  -0.00242  -0.00275
  47        2S          0.00424   0.00417   0.01014   0.00125  -0.00140
  48        2PX         0.30777   0.06437  -0.00691  -0.17957  -0.11272
  49        2PY         0.37820  -0.08896  -0.01037   0.01743  -0.01704
  50        2PZ         0.05105   0.47438   0.02227  -0.03279   0.02681
  51        3S          0.01875   0.01722  -0.03654   0.03279   0.04098
  52        3PX         0.20584   0.03869  -0.00052  -0.13437  -0.08707
  53        3PY         0.26314  -0.05560  -0.01588   0.02289  -0.00442
  54        3PZ         0.03441   0.32008   0.01805  -0.02338   0.02804
  55        4XX        -0.01052  -0.00169   0.00533  -0.00048  -0.00247
  56        4YY         0.01561  -0.00244   0.00406   0.00056  -0.00367
  57        4ZZ        -0.00074   0.00580   0.00669  -0.00321  -0.00153
  58        4XY         0.00040   0.00292   0.00036  -0.00411  -0.00231
  59        4XZ         0.00214  -0.00888  -0.00028  -0.00128  -0.00156
  60        4YZ         0.00533   0.00908   0.00165  -0.00079   0.00134
  61 5   S  1S          0.00049   0.00014   0.00206  -0.00219  -0.00180
  62        2S         -0.00264  -0.00075  -0.00842   0.00524   0.00351
  63        2PX         0.00144   0.00040   0.00196   0.03624   0.01929
  64        2PY         0.00993   0.00006   0.00933   0.00910  -0.00258
  65        2PZ         0.01326   0.00098   0.02236   0.00956   0.00415
  66        3S          0.00505   0.00129   0.02951  -0.03427  -0.02880
  67        3PX        -0.00262  -0.00095  -0.00778  -0.11727  -0.06238
  68        3PY        -0.02916  -0.00118  -0.02963  -0.02615   0.00569
  69        3PZ        -0.03843  -0.00353  -0.06523  -0.02861  -0.01161
  70        4S          0.00180   0.00472  -0.02155  -0.00631   0.00823
  71        4PX         0.00009   0.00071   0.03332   0.11011   0.13880
  72        4PY         0.03019   0.00524   0.04074   0.00650   0.11790
  73        4PZ         0.06102   0.00958   0.11586   0.02977  -0.08102
  74        5XX        -0.00514   0.00027  -0.01396  -0.09736  -0.08053
  75        5YY        -0.00107   0.00405  -0.12355   0.03559   0.02735
  76        5ZZ         0.00354  -0.00486   0.13037   0.04703   0.03592
  77        5XY         0.00995   0.00088  -0.01069  -0.07343   0.04373
  78        5XZ         0.01573   0.00656  -0.01579   0.07869  -0.06009
  79        5YZ         0.00247  -0.00288  -0.02053  -0.03552  -0.06246
  80 6   O  1S          0.00372  -0.00003   0.01518   0.00994   0.00167
  81        2S         -0.01577  -0.00103  -0.04117  -0.02244  -0.00104
  82        2PX         0.00685  -0.01645   0.23759   0.00739   0.32796
  83        2PY        -0.02580   0.00927  -0.00869   0.10390   0.20715
  84        2PZ         0.05022   0.01165   0.14836   0.19879  -0.12418
  85        3S          0.01672   0.00433  -0.00269  -0.01398  -0.02181
  86        3PX         0.00703  -0.01184   0.16908  -0.01576   0.21927
  87        3PY        -0.02632   0.00758  -0.01614   0.07887   0.13188
  88        3PZ         0.03286   0.00872   0.08219   0.12800  -0.08543
  89        4XX        -0.00362  -0.00160   0.00448  -0.00814   0.01430
  90        4YY        -0.00331  -0.00032  -0.00872  -0.00183   0.00158
  91        4ZZ        -0.00035   0.00077  -0.00470   0.00803  -0.01054
  92        4XY        -0.00066   0.00053  -0.00110   0.00158   0.00749
  93        4XZ         0.00133  -0.00070   0.01166  -0.00052   0.01736
  94        4YZ        -0.00267   0.00060  -0.00135   0.00719   0.01102
  95 7   O  1S          0.00041   0.00014   0.00211   0.00210  -0.00436
  96        2S         -0.00011   0.00161   0.00022  -0.00886   0.00290
  97        2PX         0.01167   0.00899   0.00704   0.46843  -0.12035
  98        2PY        -0.02318  -0.01537   0.33143  -0.09023   0.15129
  99        2PZ        -0.01327  -0.01133   0.30769   0.04801  -0.15965
 100        3S         -0.00950  -0.00592  -0.02772   0.00449   0.07925
 101        3PX         0.01035   0.00479  -0.00654   0.31819  -0.10478
 102        3PY        -0.02273  -0.01454   0.22402  -0.06616   0.08948
 103        3PZ        -0.01741  -0.01047   0.20761   0.02909  -0.10288
 104        4XX         0.00082   0.00097   0.00058   0.01408  -0.01530
 105        4YY        -0.00309  -0.00087   0.02816  -0.01170  -0.00175
 106        4ZZ         0.00321   0.00200  -0.02432  -0.00600   0.00102
 107        4XY         0.00098  -0.00001   0.00609   0.01968  -0.00745
 108        4XZ        -0.00055  -0.00068   0.00740  -0.02085   0.00717
 109        4YZ         0.00001   0.00016   0.00030   0.00758  -0.00760
 110 8   O  1S         -0.00292   0.00231  -0.00756  -0.00887  -0.00313
 111        2S          0.01296  -0.00440   0.02382   0.01838   0.00757
 112        2PX         0.03233   0.01053  -0.21742   0.09317   0.31803
 113        2PY         0.04141   0.01323   0.11023  -0.06114   0.18937
 114        2PZ         0.02685  -0.01348   0.21997  -0.00343  -0.06714
 115        3S         -0.01528  -0.01369  -0.01482   0.04795   0.00299
 116        3PX         0.02401   0.00875  -0.16799   0.05975   0.22126
 117        3PY         0.04041   0.01023   0.07962  -0.04562   0.13544
 118        3PZ         0.01592  -0.00718   0.16392  -0.01770  -0.04089
 119        4XX         0.00369   0.00075   0.00344  -0.00455  -0.00128
 120        4YY        -0.00006  -0.00076   0.00543  -0.00079  -0.00602
 121        4ZZ         0.00117   0.00138  -0.00821   0.00131   0.00559
 122        4XY        -0.00089  -0.00048   0.00528  -0.00119  -0.00586
 123        4XZ        -0.00132   0.00015   0.01043  -0.00320  -0.01407
 124        4YZ        -0.00187  -0.00013  -0.01304   0.00644  -0.00622
 125 9   H  1S         -0.00580   0.00631   0.02213  -0.04560  -0.01189
 126        2S         -0.00710   0.00622   0.01854  -0.02956  -0.01632
                          36        37        38        39        40
                           O         O         V         V         V
     Eigenvalues --    -0.35616  -0.34503  -0.05685  -0.03362  -0.00004
   1 1   C  1S         -0.01765  -0.01609   0.04090   0.07639  -0.10091
   2        2S          0.03228   0.03163  -0.09402  -0.17482   0.24374
   3        2PX        -0.08626  -0.07498   0.10149   0.27053  -0.20038
   4        2PY        -0.00941  -0.00990   0.14105  -0.17032  -0.19647
   5        2PZ        -0.00085  -0.00317   0.11872  -0.12362   0.06120
   6        3S          0.12337   0.10551  -0.26802  -0.55432   0.62978
   7        3PX        -0.03740  -0.02763   0.06675   0.26719  -0.13849
   8        3PY         0.02153  -0.04959   0.24886  -0.22264  -0.20908
   9        3PZ         0.04287  -0.01570   0.12768  -0.14435   0.07603
  10        4XX         0.00838   0.00584   0.00712  -0.00138  -0.01888
  11        4YY        -0.00442  -0.00351   0.00429   0.00741   0.00071
  12        4ZZ        -0.00472  -0.00372  -0.00231   0.01096  -0.00669
  13        4XY         0.00000   0.00242  -0.01655   0.02914   0.01773
  14        4XZ        -0.00350   0.00223  -0.01718   0.01439  -0.00946
  15        4YZ        -0.00064   0.00045  -0.00047  -0.00526  -0.00583
  16 2   F  1S          0.00440   0.00065   0.00844  -0.02005   0.02106
  17        2S          0.00107   0.00041  -0.01598   0.03459  -0.05105
  18        2PX         0.11173   0.02515   0.04153  -0.12576   0.10707
  19        2PY        -0.01117   0.00270  -0.04140   0.04773   0.05787
  20        2PZ         0.00873   0.01006   0.02470  -0.10368   0.10389
  21        3S         -0.05717  -0.00738  -0.06798   0.16641  -0.14582
  22        3PX         0.08527   0.02126   0.03441  -0.12229   0.08923
[...]
 124        4YZ         0.00000   0.00011   0.00006  -0.00000   0.00000
 125 9   H  1S         -0.00000   0.00006  -0.00001  -0.00000   0.00000
 126        2S         -0.00009   0.00136  -0.00029   0.00000   0.00002
                         106       107       108       109       110
 106        4ZZ         0.00376
 107        4XY        -0.00000   0.00207
 108        4XZ        -0.00000   0.00000   0.00204
 109        4YZ         0.00000   0.00000  -0.00000   0.00174
 110 8   O  1S         -0.00000  -0.00000   0.00000   0.00000   2.07944
 111        2S          0.00000   0.00000  -0.00000  -0.00000  -0.04342
 112        2PX         0.00000   0.00000  -0.00000   0.00000   0.00000
 113        2PY         0.00000   0.00000  -0.00000  -0.00000   0.00000
 114        2PZ        -0.00000   0.00000  -0.00000   0.00000   0.00000
 115        3S          0.00012   0.00000  -0.00000  -0.00001  -0.04387
 116        3PX         0.00000   0.00002  -0.00000   0.00000   0.00000
 117        3PY         0.00015   0.00001  -0.00000  -0.00005   0.00000
 118        3PZ         0.00000   0.00000  -0.00000   0.00001   0.00000
 119        4XX        -0.00000  -0.00000  -0.00000  -0.00000  -0.00043
 120        4YY        -0.00000  -0.00000   0.00000   0.00000  -0.00058
 121        4ZZ        -0.00000  -0.00000  -0.00000  -0.00000  -0.00040
 122        4XY         0.00000   0.00000   0.00000   0.00000   0.00000
 123        4XZ         0.00000   0.00000  -0.00000   0.00000  -0.00000
 124        4YZ         0.00000  -0.00000  -0.00000  -0.00000  -0.00000
 125 9   H  1S         -0.00000  -0.00000   0.00000   0.00000  -0.00020
 126        2S         -0.00002  -0.00000   0.00000   0.00000   0.00043
                         111       112       113       114       115
 111        2S          0.52201
 112        2PX         0.00000   0.70871
 113        2PY         0.00000   0.00000   0.59705
 114        2PZ         0.00000  -0.00000  -0.00000   0.64915
 115        3S          0.47476   0.00000   0.00000   0.00000   0.80654
 116        3PX         0.00000   0.25328   0.00000  -0.00000   0.00000
 117        3PY         0.00000   0.00000   0.20017  -0.00000   0.00000
 118        3PZ         0.00000  -0.00000  -0.00000   0.22342   0.00000
 119        4XX        -0.00342   0.00000   0.00000   0.00000  -0.00669
 120        4YY         0.00183   0.00000   0.00000   0.00000   0.00164
 121        4ZZ        -0.00487   0.00000   0.00000   0.00000  -0.01218
 122        4XY        -0.00000   0.00000   0.00000   0.00000  -0.00000
 123        4XZ         0.00000   0.00000   0.00000   0.00000   0.00000
 124        4YZ         0.00000   0.00000   0.00000   0.00000   0.00000
 125 9   H  1S          0.00448   0.01087   0.01014   0.02166   0.00247
 126        2S         -0.00643   0.00718   0.00709   0.01427  -0.03254
                         116       117       118       119       120
 116        3PX         0.36248
 117        3PY         0.00000   0.27376
 118        3PZ        -0.00000  -0.00000   0.30789
 119        4XX         0.00000   0.00000   0.00000   0.00053
 120        4YY         0.00000   0.00000   0.00000   0.00003   0.00107
 121        4ZZ         0.00000   0.00000   0.00000   0.00002  -0.00013
 122        4XY         0.00000   0.00000   0.00000   0.00000   0.00000
 123        4XZ         0.00000   0.00000   0.00000  -0.00000   0.00000
 124        4YZ         0.00000   0.00000   0.00000   0.00000  -0.00000
 125 9   H  1S          0.02279   0.01949   0.04819  -0.00018  -0.00073
 126        2S          0.01631   0.01528   0.03369   0.00003  -0.00122
                         121       122       123       124       125
 121        4ZZ         0.00273
 122        4XY        -0.00000   0.00073
 123        4XZ         0.00000  -0.00000   0.00169
 124        4YZ        -0.00000   0.00000  -0.00000   0.00167
 125 9   H  1S          0.00322   0.00016   0.00184   0.00103   0.15446
 126        2S          0.00397  -0.00001   0.00039   0.00023   0.06982
                         126
 126        2S          0.07978
     Gross orbital populations:
                           1
   1 1   C  1S          1.99223
   2        2S          0.72381
   3        2PX         0.66026
   4        2PY         0.53613
   5        2PZ         0.53044
   6        3S          0.38272
   7        3PX         0.18631
   8        3PY         0.13263
   9        3PZ         0.13367
  10        4XX         0.01476
  11        4YY         0.00557
  12        4ZZ         0.00424
  13        4XY         0.02243
  14        4XZ         0.01952
  15        4YZ         0.03013
  16 2   F  1S          1.99336
  17        2S          0.95540
  18        2PX         1.13489
  19        2PY         1.19146
  20        2PZ         0.95159
  21        3S          0.98528
  22        3PX         0.69887
  23        3PY         0.71942
  24        3PZ         0.57144
  25        4XX         0.00977
  26        4YY         0.00554
  27        4ZZ         0.02986
  28        4XY         0.00065
  29        4XZ         0.00486
  30        4YZ         0.00273
  31 3   F  1S          1.99331
  32        2S          0.95790
  33        2PX         1.14644
  34        2PY         1.02458
  35        2PZ         1.12381
  36        3S          0.96429
  37        3PX         0.68972
  38        3PY         0.59173
  39        3PZ         0.66060
  40        4XX         0.01082
  41        4YY         0.02352
  42        4ZZ         0.01318
  43        4XY         0.00409
  44        4XZ         0.00196
  45        4YZ         0.00539
  46 4   F  1S          1.99336
  47        2S          0.95485
  48        2PX         1.09492
  49        2PY         1.02409
  50        2PZ         1.15691
  51        3S          0.98748
  52        3PX         0.68105
  53        3PY         0.62146
  54        3PZ         0.70028
  55        4XX         0.01281
  56        4YY         0.02141
  57        4ZZ         0.00825
  58        4XY         0.00471
  59        4XZ         0.00174
  60        4YZ         0.00338
  61 5   S  1S          1.99861
  62        2S          1.98813
  63        2PX         1.98865
  64        2PY         1.98858
  65        2PZ         1.98896
  66        3S          1.34085
  67        3PX         0.90265
  68        3PY         0.83392
  69        3PZ         0.86178
  70        4S         -0.04080
  71        4PX         0.15479
  72        4PY         0.15820
  73        4PZ         0.10046
  74        5XX         0.07125
  75        5YY         0.06240
  76        5ZZ         0.09272
  77        5XY         0.07459
  78        5XZ         0.11577
  79        5YZ         0.14703
  80 6   O  1S          1.99270
  81        2S          0.93175
  82        2PX         0.95201
  83        2PY         1.01646
  84        2PZ         0.86996
  85        3S          1.00740
  86        3PX         0.61518
  87        3PY         0.66415
  88        3PZ         0.42414
  89        4XX        -0.00585
  90        4YY        -0.01056
  91        4ZZ         0.01145
  92        4XY         0.00178
  93        4XZ         0.00912
  94        4YZ         0.00748
  95 7   O  1S          1.99250
  96        2S          0.93538
  97        2PX         0.98290
  98        2PY         0.96619
  99        2PZ         0.95908
 100        3S          0.91989
 101        3PX         0.59853
 102        3PY         0.48512
 103        3PZ         0.48608
 104        4XX        -0.00291
 105        4YY         0.00652
 106        4ZZ         0.00632
 107        4XY         0.00699
 108        4XZ         0.00694
 109        4YZ         0.00921
 110 8   O  1S          1.99277
 111        2S          0.92232
 112        2PX         0.99861
 113        2PY         0.86351
 114        2PZ         0.92772
 115        3S          1.04422
 116        3PX         0.69221
 117        3PY         0.54670
 118        3PZ         0.63547
 119        4XX        -0.00834
 120        4YY         0.00819
 121        4ZZ        -0.00388
 122        4XY         0.00208
 123        4XZ         0.00487
 124        4YZ         0.00703
 125 9   H  1S          0.36970
 126        2S          0.21440
          Condensed to atoms (all electrons):
               1          2          3          4          5          6
     1  C    4.750654   0.199414   0.222175   0.205156   0.085734  -0.029614
     2  F    0.199414   9.106871  -0.029138  -0.032413   0.010925   0.000182
     3  F    0.222175  -0.029138   9.043015  -0.031140   0.006955  -0.000246
     4  F    0.205156  -0.032413  -0.031140   9.117005   0.007920  -0.000036
     5  S    0.085734   0.010925   0.006955   0.007920  13.609843   0.433715
     6  O   -0.029614   0.000182  -0.000246  -0.000036   0.433715   8.175199
     7  O   -0.038396  -0.000368   0.000219   0.000032   0.511915  -0.043648
     8  O   -0.021156  -0.000377  -0.000345   0.000160   0.159169  -0.050240
     9  H    0.000896   0.000002  -0.000156  -0.000004   0.002367   0.001854
               7          8          9
     1  C   -0.038396  -0.021156   0.000896
     2  F   -0.000368  -0.000377   0.000002
     3  F    0.000219  -0.000345  -0.000156
     4  F    0.000032   0.000160  -0.000004
     5  S    0.511915   0.159169   0.002367
     6  O   -0.043648  -0.050240   0.001854
     7  O    7.979099  -0.051430   0.001321
     8  O   -0.051430   8.393765   0.203928
     9  H    0.001321   0.203928   0.373888
 Mulliken charges:
               1
     1  C    0.625137
     2  F   -0.255097
     3  F   -0.211339
     4  F   -0.266680
     5  S    1.171458
     6  O   -0.487166
     7  O   -0.358743
     8  O   -0.633474
     9  H    0.415904
 Sum of Mulliken charges =  -0.00000
 Mulliken charges with hydrogens summed into heavy atoms:
               1
     1  C    0.625137
     2  F   -0.255097
     3  F   -0.211339
     4  F   -0.266680
     5  S    1.171458
     6  O   -0.487166
     7  O   -0.358743
     8  O   -0.217570
 Electronic spatial extent (au):  <R**2>=            916.8994
 Charge=             -0.0000 electrons
 Dipole moment (field-independent basis, Debye):
    X=             -0.1764    Y=              2.0577    Z=             -0.6797  Tot=              2.1742
 Quadrupole moment (field-independent basis, Debye-Ang):
   XX=            -48.2880   YY=            -46.7847   ZZ=            -53.6852
   XY=             -4.6079   XZ=              0.5786   YZ=             -1.6180
 Traceless Quadrupole moment (field-independent basis, Debye-Ang):
   XX=              1.2980   YY=              2.8012   ZZ=             -4.0992
   XY=             -4.6079   XZ=              0.5786   YZ=             -1.6180
 Octapole moment (field-independent basis, Debye-Ang**2):
  XXX=              9.2657  YYY=             10.6714  ZZZ=              2.9705  XYY=             -2.3953
  XXY=             13.0030  XXZ=             -1.5412  XZZ=             11.4433  YZZ=              1.0007
  YYZ=             -5.0780  XYZ=              2.6158
 Hexadecapole moment (field-independent basis, Debye-Ang**3):
 XXXX=           -486.5089 YYYY=           -199.1596 ZZZZ=           -214.4236 XXXY=            -23.1592
 XXXZ=              2.5935 YYYX=            -22.4422 YYYZ=             -5.5728 ZZZX=             -4.9532
 ZZZY=             -2.4337 XXYY=           -101.9312 XXZZ=           -129.1578 YYZZ=            -73.4618
 XXYZ=             -6.8816 YYXZ=              8.1259 ZZXY=             -0.8291
 N-N= 5.502119417344D+02 E-N=-3.379155286211D+03  KE= 9.558435806659D+02
 Orbital energies and kinetic energies (alpha):
                                 1                 2
   1         O               -89.172813        120.981302
   2         O               -24.788155         37.083369
   3         O               -24.760058         37.084407
   4         O               -24.756374         37.084515
   5         O               -19.235442         29.033153
   6         O               -19.213449         29.023340
   7         O               -19.197269         29.028735
   8         O               -10.502139         15.902708
   9         O                -8.200404         18.521589
  10         O                -6.165171         17.520696
  11         O                -6.164147         17.506985
  12         O                -6.163502         17.515447
  13         O                -1.325958          3.347319
  14         O                -1.249014          3.779122
  15         O                -1.223307          3.862646
  16         O                -1.206838          2.862289
  17         O                -1.075575          2.918902
  18         O                -1.018685          2.801241
  19         O                -0.793734          2.540450
  20         O                -0.681207          2.921598
  21         O                -0.615612          2.730054
  22         O                -0.606037          2.592513
  23         O                -0.593650          2.590576
  24         O                -0.552484          2.506734
  25         O                -0.512808          2.704332
  26         O                -0.498638          2.902956
  27         O                -0.487423          3.197700
  28         O                -0.480217          3.017219
  29         O                -0.462304          2.106288
  30         O                -0.455353          3.302819
  31         O                -0.444340          3.367102
  32         O                -0.428335          3.493423
  33         O                -0.405703          2.296753
  34         O                -0.391557          2.520024
  35         O                -0.369702          2.370165
  36         O                -0.356159          2.432123
  37         O                -0.345034          2.471195
  38         V                -0.056845          2.215240
  39         V                -0.033618          2.840018
  40         V                -0.000044          3.368727
  41         V                 0.017604          2.733541
  42         V                 0.083811          3.598443
  43         V                 0.113165          3.076916
  44         V                 0.134668          3.783457
  45         V                 0.192805          2.993001
  46         V                 0.284868          2.157661
  47         V                 0.310885          1.947871
  48         V                 0.337555          2.170243
  49         V                 0.403501          2.798879
  50         V                 0.457033          2.480254
  51         V                 0.497575          2.532966
  52         V                 0.518790          2.404474
  53         V                 0.649326          2.223347
  54         V                 0.669992          2.745740
  55         V                 0.689701          2.529146
  56         V                 0.748462          2.590807
  57         V                 0.757086          2.556305
  58         V                 0.797744          2.767324
  59         V                 0.860108          3.050832
  60         V                 0.872607          2.668023
  61         V                 0.927201          3.049275
  62         V                 0.966539          3.295379
  63         V                 0.972619          3.310526
  64         V                 0.997984          3.617171
  65         V                 1.011509          3.695183
  66         V                 1.038182          3.428944
  67         V                 1.079260          3.600952
  68         V                 1.093497          3.637069
  69         V                 1.100299          3.746970
  70         V                 1.132103          3.697823
  71         V                 1.169173          3.505703
  72         V                 1.184825          3.524949
  73         V                 1.233617          4.710609
  74         V                 1.269803          3.259141
  75         V                 1.288006          4.384570
  76         V                 1.324205          3.838134
  77         V                 1.346517          2.959204
  78         V                 1.353249          2.929050
  79         V                 1.358365          3.433313
  80         V                 1.380312          3.755711
  81         V                 1.525419          3.118453
  82         V                 1.548703          2.960052
  83         V                 1.571257          3.497400
  84         V                 1.602249          3.411827
  85         V                 1.687575          3.160383
  86         V                 1.709528          2.903320
  87         V                 1.730809          2.957543
  88         V                 1.748332          3.057546
  89         V                 1.766864          2.997948
  90         V                 1.783249          2.985335
  91         V                 1.787513          3.000671
  92         V                 1.797220          2.948247
  93         V                 1.812260          3.185660
  94         V                 1.826154          2.985525
  95         V                 1.830992          3.162057
  96         V                 1.863418          3.121270
  97         V                 1.901938          3.285254
  98         V                 1.918221          3.364578
  99         V                 1.942383          3.662782
 100         V                 1.969448          3.545201
 101         V                 1.987280          3.658022
 102         V                 2.008379          3.595402
 103         V                 2.058349          3.700146
 104         V                 2.090966          3.554439
 105         V                 2.105709          3.637364
 106         V                 2.143166          3.634399
 107         V                 2.167168          3.655570
 108         V                 2.185254          3.882954
 109         V                 2.293890          4.016875
 110         V                 2.363820          4.468418
 111         V                 2.563324          3.989497
 112         V                 2.612546          4.043503
 113         V                 2.641652          4.326366
 114         V                 2.725179          4.836482
 115         V                 2.818437          5.264406
 116         V                 2.850586          6.094489
 117         V                 3.001193          5.775282
 118         V                 3.026687          5.682434
 119         V                 3.544394          9.968389
 120         V                 3.848710         10.703802
 121         V                 3.856423         11.709024
 122         V                 3.940589         11.671980
 123         V                 4.224211         11.600836
 124         V                 4.280503         10.492606
 125         V                 4.344752         11.443080
 126         V                 5.054929         13.900339
 Total kinetic energy from orbitals= 9.558435806659D+02
 Unable to Open any file for archive entry.
 1\1\GINC-SPARTAN-BM162\SP\RB3LYP\6-31G(d)\C1H1F3O3S1\AKHALILOV\20-Mar-
 2025\0\\# B3LYP/6-31G(d) pop=full density=current\\PFMS Time step 40\\
 0,1\C,0,-0.916683,0.030066,-0.218052\F,0,-1.055043,0.158747,-1.624281\
 F,0,-1.589559,1.050879,0.353926\F,0,-1.681402,-1.150064,0.059373\S,0,0
 .856031,-0.179974,0.272161\O,0,1.027276,-0.181934,1.731247\O,0,1.52502
 2,-1.041024,-0.538462\O,0,1.449806,1.36605,-0.186136\H,0,1.790957,1.95
 7732,0.814136\\Version=ES64L-G16RevC.01\State=1-A\HF=-961.9303502\RMSD
 =4.583e-09\Dipole=-0.0529388,0.7968892,0.3063742\Quadrupole=0.1035021,
 2.2486053,-2.3521074,2.8019267,1.4036573,2.3508582\PG=C01 [X(C1H1F3O3S
 1)]\\@
 The archive entry for this job was punched.


 COLLEGE PROFESSOR: SOMEONE WHO TALKS IN OTHER PEOPLE'S SLEEP.
 Job cpu time:       0 days  0 hours  0 minutes 10.5 seconds.
 Elapsed time:       0 days  0 hours  0 minutes  3.2 seconds.
 File lengths (MBytes):  RWF=     10 Int=      0 D2E=      0 Chk=      2 Scr=      1
 Normal termination of Gaussian 16 at Thu Mar 20 00:10:54 2025.
