 Entering Gaussian System, Link 0=g16
 Input=PFMS_1000K_step0010.gjf
 Output=PFMS_1000K_step0010.log
 Initial command:
 /apps/easybuild-2022/easybuild/software/Compiler/NVHPC/22.11-CUDA-11.7.0/Gaussian/g16c01-CUDA-11.7.0/g16/l1.exe "/tmp/Gau-267170.inp" -scrdir="/tmp/"
 Default is to use a total of   4 processors:
                                4 via shared-memory
                                1 via Linda
 Entering Link 1 = /apps/easybuild-2022/easybuild/software/Compiler/NVHPC/22.11-CUDA-11.7.0/Gaussian/g16c01-CUDA-11.7.0/g16/l1.exe PID=    267171.
  
 Copyright (c) 1988-2019, Gaussian, Inc.  All Rights Reserved.
  
 This is part of the Gaussian(R) 16 program.  It is based on
 the Gaussian(R) 09 system (copyright 2009, Gaussian, Inc.),
 the Gaussian(R) 03 system (copyright 2003, Gaussian, Inc.),
 the Gaussian(R) 98 system (copyright 1998, Gaussian, Inc.),
 the Gaussian(R) 94 system (copyright 1995, Gaussian, Inc.),
 the Gaussian 92(TM) system (copyright 1992, Gaussian, Inc.),
 the Gaussian 90(TM) system (copyright 1990, Gaussian, Inc.),
 the Gaussian 88(TM) system (copyright 1988, Gaussian, Inc.),
 the Gaussian 86(TM) system (copyright 1986, Carnegie Mellon
 University), and the Gaussian 82(TM) system (copyright 1983,
 Carnegie Mellon University). Gaussian is a federally registered
 trademark of Gaussian, Inc.
  
 This software contains proprietary and confidential information,
 including trade secrets, belonging to Gaussian, Inc.
  
 This software is provided under written license and may be
 used, copied, transmitted, or stored only in accord with that
 written license.
  
 The following legend is applicable only to US Government
 contracts under FAR:
  
                    RESTRICTED RIGHTS LEGEND
  
 Use, reproduction and disclosure by the US Government is
 subject to restrictions as set forth in subparagraphs (a)
 and (c) of the Commercial Computer Software - Restricted
 Rights clause in FAR 52.227-19.
  
 Gaussian, Inc.
 340 Quinnipiac St., Bldg. 40, Wallingford CT 06492
  
  
 ---------------------------------------------------------------
 Warning -- This program may not be used in any manner that
 competes with the business of Gaussian, Inc. or will provide
 assistance to any competitor of Gaussian, Inc.  The licensee
 of this program is prohibited from giving any competitor of
 Gaussian, Inc. access to this program.  By using this program,
 the user acknowledges that Gaussian, Inc. is engaged in the
 business of creating and licensing software in the field of
 computational chemistry and represents and warrants to the
 licensee that it is not a competitor of Gaussian, Inc. and that
 it will not use this program in any manner prohibited above.
 ---------------------------------------------------------------
  

 Cite this work as:
 Gaussian 16, Revision C.01,
 M. J. Frisch, G. W. Trucks, H. B. Schlegel, G. E. Scuseria, 
 M. A. Robb, J. R. Cheeseman, G. Scalmani, V. Barone, 
 G. A. Petersson, H. Nakatsuji, X. Li, M. Caricato, A. V. Marenich, 
 J. Bloino, B. G. Janesko, R. Gomperts, B. Mennucci, H. P. Hratchian, 
 J. V. Ortiz, A. F. Izmaylov, J. L. Sonnenberg, D. Williams-Young, 
 F. Ding, F. Lipparini, F. Egidi, J. Goings, B. Peng, A. Petrone, 
 T. Henderson, D. Ranasinghe, V. G. Zakrzewski, J. Gao, N. Rega, 
 G. Zheng, W. Liang, M. Hada, M. Ehara, K. Toyota, R. Fukuda, 
 J. Hasegawa, M. Ishida, T. Nakajima, Y. Honda, O. Kitao, H. Nakai, 
 T. Vreven, K. Throssell, J. A. Montgomery, Jr., J. E. Peralta, 
 F. Ogliaro, M. J. Bearpark, J. J. Heyd, E. N. Brothers, K. N. Kudin, 
 V. N. Staroverov, T. A. Keith, R. Kobayashi, J. Normand, 
 K. Raghavachari, A. P. Rendell, J. C. Burant, S. S. Iyengar, 
 J. Tomasi, M. Cossi, J. M. Millam, M. Klene, C. Adamo, R. Cammi, 
 J. W. Ochterski, R. L. Martin, K. Morokuma, O. Farkas, 
 J. B. Foresman, and D. J. Fox, Gaussian, Inc., Wallingford CT, 2019.
 
 ******************************************
 Gaussian 16:  ES64L-G16RevC.01  3-Jul-2019
                20-Mar-2025 
 ******************************************
 %chk=PFMS_1000K_step0010.chk
 %mem=8GB
 %nprocshared=4
 Will use up to    4 processors via shared memory.
 -----------------------------------------
 # B3LYP/6-31G(d) pop=full density=current
 -----------------------------------------
 1/30=1,38=1,172=1/1;
 2/12=2,17=6,18=5,40=1/2;
 3/5=1,6=6,7=1,11=2,25=1,30=1,74=-5/1,2,3;
 4//1;
 5/5=2,38=5/2;
 6/7=3,22=-1,28=1/1;
 99/5=1,9=1/99;
 -----------------
 PFMS Time step 10
 -----------------
 Symbolic Z-matrix:
 Charge =  0 Multiplicity = 1
 C                    -0.9203    0.00243  -0.24069 
 F                    -1.06438   0.17518  -1.60419 
 F                    -1.56095   1.04699   0.3562 
 F                    -1.65522  -1.13185   0.06565 
 S                     0.85229  -0.15571   0.26622 
 O                     0.99335  -0.17027   1.71717 
 O                     1.55991  -1.08239  -0.5451 
 O                     1.40664   1.33756  -0.16672 
 H                     1.7656    1.86061   0.75279 
 
                          Input orientation:                          
 ---------------------------------------------------------------------
 Center     Atomic      Atomic             Coordinates (Angstroms)
 Number     Number       Type             X           Y           Z
 ---------------------------------------------------------------------
      1          6           0       -0.920299    0.002428   -0.240691
      2          9           0       -1.064376    0.175184   -1.604194
      3          9           0       -1.560948    1.046986    0.356204
      4          9           0       -1.655223   -1.131849    0.065647
      5         16           0        0.852287   -0.155707    0.266223
      6          8           0        0.993354   -0.170270    1.717167
      7          8           0        1.559912   -1.082390   -0.545096
      8          8           0        1.406641    1.337563   -0.166719
      9          1           0        1.765597    1.860613    0.752792
 ---------------------------------------------------------------------
                    Distance matrix (angstroms):
                    1          2          3          4          5
     1  C    0.000000
     2  F    1.381935   0.000000
     3  F    1.363017   2.202222   0.000000
     4  F    1.385836   2.201319   2.200144   0.000000
     5  S    1.850413   2.698434   2.697827   2.698275   0.000000
     6  O    2.743192   3.922376   3.139808   3.266055   1.457858
     7  O    2.724140   3.096784   3.884115   3.273003   1.420462
     8  O    2.683786   3.085998   3.027287   3.940432   1.650637
     9  H    3.413780   4.050284   3.447488   4.596630   2.266370
                    6          7          8          9
     6  O    0.000000
     7  O    2.504153   0.000000
     8  O    2.448141   2.454146   0.000000
     9  H    2.377155   3.223055   1.117108   0.000000
 Stoichiometry    CHF3O3S
 Framework group  C1[X(CHF3O3S)]
 Deg. of freedom    21
 Full point group                 C1      NOp   1
 Largest Abelian subgroup         C1      NOp   1
 Largest concise Abelian subgroup C1      NOp   1
                         Standard orientation:                         
 ---------------------------------------------------------------------
 Center     Atomic      Atomic             Coordinates (Angstroms)
 Number     Number       Type             X           Y           Z
 ---------------------------------------------------------------------
      1          6           0       -0.993973    0.022639    0.011048
      2          9           0       -1.498744   -0.188371   -1.257977
      3          9           0       -1.418807    1.257631    0.401080
      4          9           0       -1.649006   -0.889304    0.823349
      5         16           0        0.844565   -0.174969    0.080032
      6          8           0        1.374621    0.212017    1.381813
      7          8           0        1.278753   -1.366542   -0.559770
      8          8           0        1.301428    1.061962   -0.912883
      9          1           0        1.911394    1.784563   -0.318139
 ---------------------------------------------------------------------
 Rotational constants (GHZ):           2.6095821           1.4469289           1.4326127
 Standard basis: 6-31G(d) (6D, 7F)
 There are   126 symmetry adapted cartesian basis functions of A   symmetry.
 There are   126 symmetry adapted basis functions of A   symmetry.
   126 basis functions,   252 primitive gaussians,   126 cartesian basis functions
    37 alpha electrons       37 beta electrons
       nuclear repulsion energy       554.2605821626 Hartrees.
 NAtoms=    9 NActive=    9 NUniq=    9 SFac= 1.00D+00 NAtFMM=   60 NAOKFM=F Big=F
 Integral buffers will be    131072 words long.
 Raffenetti 2 integral format.
 Two-electron integral symmetry is turned on.
 One-electron integrals computed using PRISM.
 NBasis=   126 RedAO= T EigKep=  2.60D-03  NBF=   126
 NBsUse=   126 1.00D-06 EigRej= -1.00D+00 NBFU=   126
 ExpMin= 1.17D-01 ExpMax= 2.19D+04 ExpMxC= 3.30D+03 IAcc=3 IRadAn=         5 AccDes= 0.00D+00
 Harris functional with IExCor=  402 and IRadAn=       5 diagonalized for initial guess.
 HarFok:  IExCor=  402 AccDes= 0.00D+00 IRadAn=         5 IDoV= 1 UseB2=F ITyADJ=14
 ICtDFT=  3500011 ScaDFX=  1.000000  1.000000  1.000000  1.000000
 FoFCou: FMM=F IPFlag=           0 FMFlag=      100000 FMFlg1=           0
         NFxFlg=           0 DoJE=T BraDBF=F KetDBF=T FulRan=T
         wScrn=  0.000000 ICntrl=       500 IOpCl=  0 I1Cent=   200000004 NGrid=           0
         NMat0=    1 NMatS0=      1 NMatT0=    0 NMatD0=    1 NMtDS0=    0 NMtDT0=    0
 Petite list used in FoFCou.
 Keep R1 ints in memory in canonical form, NReq=35818892.
 Requested convergence on RMS density matrix=1.00D-08 within 128 cycles.
 Requested convergence on MAX density matrix=1.00D-06.
 Requested convergence on             energy=1.00D-06.
 No special actions if energy rises.
 Integral accuracy reduced to 1.0D-05 until final iterations.
 Initial convergence to 1.0D-05 achieved.  Increase integral accuracy.
 SCF Done:  E(RB3LYP) =  -961.970886404     A.U. after   14 cycles
            NFock= 14  Conv=0.68D-08     -V/T= 2.0063

 **********************************************************************

            Population analysis using the SCF Density.

 **********************************************************************

 Orbital symmetries:
       Occupied  (A) (A) (A) (A) (A) (A) (A) (A) (A) (A) (A) (A)
                 (A) (A) (A) (A) (A) (A) (A) (A) (A) (A) (A) (A)
                 (A) (A) (A) (A) (A) (A) (A) (A) (A) (A) (A) (A)
                 (A)
       Virtual   (A) (A) (A) (A) (A) (A) (A) (A) (A) (A) (A) (A)
                 (A) (A) (A) (A) (A) (A) (A) (A) (A) (A) (A) (A)
                 (A) (A) (A) (A) (A) (A) (A) (A) (A) (A) (A) (A)
                 (A) (A) (A) (A) (A) (A) (A) (A) (A) (A) (A) (A)
                 (A) (A) (A) (A) (A) (A) (A) (A) (A) (A) (A) (A)
                 (A) (A) (A) (A) (A) (A) (A) (A) (A) (A) (A) (A)
                 (A) (A) (A) (A) (A) (A) (A) (A) (A) (A) (A) (A)
                 (A) (A) (A) (A) (A)
 The electronic state is 1-A.
 Alpha  occ. eigenvalues --  -89.17361 -24.77651 -24.76830 -24.76768 -19.24279
 Alpha  occ. eigenvalues --  -19.20182 -19.19421 -10.50016  -8.19917  -6.16452
 Alpha  occ. eigenvalues --   -6.16255  -6.16251  -1.33273  -1.25305  -1.24422
 Alpha  occ. eigenvalues --   -1.18722  -1.06681  -1.04655  -0.79402  -0.68807
 Alpha  occ. eigenvalues --   -0.62231  -0.61610  -0.60629  -0.55324  -0.51193
 Alpha  occ. eigenvalues --   -0.49390  -0.49189  -0.48952  -0.46811  -0.45820
 Alpha  occ. eigenvalues --   -0.45398  -0.43635  -0.40229  -0.38071  -0.36923
 Alpha  occ. eigenvalues --   -0.36063  -0.34255
 Alpha virt. eigenvalues --   -0.03763  -0.01873   0.01691   0.03015   0.09299
 Alpha virt. eigenvalues --    0.12975   0.15116   0.18847   0.28475   0.31318
 Alpha virt. eigenvalues --    0.34157   0.39117   0.45887   0.48975   0.51418
 Alpha virt. eigenvalues --    0.64598   0.67632   0.69905   0.75456   0.78222
 Alpha virt. eigenvalues --    0.79923   0.86428   0.87792   0.92956   0.96856
 Alpha virt. eigenvalues --    0.98588   0.99944   1.01231   1.02167   1.08003
 Alpha virt. eigenvalues --    1.10125   1.10563   1.11982   1.16572   1.17957
 Alpha virt. eigenvalues --    1.18481   1.27326   1.29023   1.32175   1.34345
 Alpha virt. eigenvalues --    1.34531   1.36192   1.37702   1.51742   1.54990
 Alpha virt. eigenvalues --    1.58598   1.60088   1.67605   1.71500   1.73916
 Alpha virt. eigenvalues --    1.75167   1.76852   1.77665   1.79020   1.79779
 Alpha virt. eigenvalues --    1.81670   1.82052   1.83006   1.86823   1.91250
 Alpha virt. eigenvalues --    1.92963   1.95068   2.00055   2.00930   2.02396
 Alpha virt. eigenvalues --    2.07874   2.11541   2.14986   2.16075   2.18788
 Alpha virt. eigenvalues --    2.20673   2.28579   2.43351   2.62045   2.63946
 Alpha virt. eigenvalues --    2.64243   2.73496   2.80198   2.88695   3.00610
 Alpha virt. eigenvalues --    3.01490   3.56484   3.82881   3.86586   3.93490
 Alpha virt. eigenvalues --    4.28239   4.30400   4.38113   5.06935
     Molecular Orbital Coefficients:
                           1         2         3         4         5
                           O         O         O         O         O
     Eigenvalues --   -89.17361 -24.77651 -24.76830 -24.76768 -19.24279
   1 1   C  1S         -0.00003  -0.00003  -0.00002  -0.00003  -0.00002
   2        2S         -0.00007   0.00002  -0.00002  -0.00003  -0.00015
   3        2PX         0.00005  -0.00030  -0.00037  -0.00031   0.00003
   4        2PY        -0.00000   0.00057  -0.00037  -0.00007   0.00000
   5        2PZ         0.00000   0.00017   0.00034  -0.00054   0.00002
   6        3S          0.00084   0.00040   0.00013   0.00030   0.00106
   7        3PX         0.00039   0.00052   0.00043   0.00047   0.00045
   8        3PY        -0.00007  -0.00008   0.00009  -0.00009  -0.00069
   9        3PZ        -0.00000   0.00006  -0.00010   0.00005   0.00002
  10        4XX        -0.00005   0.00006   0.00017   0.00011   0.00005
  11        4YY        -0.00001   0.00044   0.00028   0.00006  -0.00003
  12        4ZZ        -0.00000   0.00007   0.00024   0.00049  -0.00000
  13        4XY         0.00001  -0.00019   0.00022   0.00005   0.00003
  14        4XZ        -0.00000  -0.00007  -0.00019   0.00024  -0.00001
  15        4YZ        -0.00000   0.00015  -0.00023   0.00008  -0.00003
  16 2   F  1S          0.00002   0.00009   0.00120   0.99301  -0.00003
  17        2S          0.00011   0.00004   0.00009   0.01972  -0.00018
  18        2PX         0.00001   0.00000  -0.00000   0.00028  -0.00004
  19        2PY        -0.00000   0.00001  -0.00001   0.00011  -0.00001
  20        2PZ        -0.00000   0.00001   0.00002   0.00068   0.00000
  21        3S         -0.00041   0.00003  -0.00005   0.01473   0.00050
  22        3PX        -0.00013  -0.00002   0.00000  -0.00016   0.00012
  23        3PY         0.00001  -0.00011   0.00006  -0.00007   0.00011
  24        3PZ        -0.00006  -0.00009  -0.00014  -0.00048  -0.00004
  25        4XX         0.00006   0.00003   0.00003  -0.00799  -0.00009
  26        4YY         0.00005  -0.00007   0.00000  -0.00797  -0.00016
  27        4ZZ         0.00007  -0.00006  -0.00011  -0.00835  -0.00016
  28        4XY        -0.00001   0.00001  -0.00003  -0.00004   0.00001
  29        4XZ        -0.00003  -0.00002   0.00000  -0.00020  -0.00001
  30        4YZ         0.00001  -0.00009   0.00007  -0.00007   0.00003
  31 3   F  1S          0.00002   0.99301  -0.00009  -0.00010  -0.00005
  32        2S          0.00010   0.01973   0.00007   0.00004  -0.00028
  33        2PX         0.00001   0.00025  -0.00000  -0.00000  -0.00001
  34        2PY         0.00000  -0.00069  -0.00002  -0.00001   0.00001
  35        2PZ         0.00000  -0.00021   0.00000  -0.00002   0.00000
  36        3S         -0.00036   0.01471  -0.00007   0.00003   0.00096
  37        3PX        -0.00013  -0.00015   0.00000  -0.00001   0.00010
  38        3PY         0.00005   0.00050   0.00015   0.00007  -0.00010
  39        3PZ         0.00001   0.00015  -0.00003   0.00012  -0.00008
  40        4XX         0.00006  -0.00797   0.00004   0.00003  -0.00016
  41        4YY         0.00006  -0.00835  -0.00011  -0.00004  -0.00018
  42        4ZZ         0.00005  -0.00800   0.00003  -0.00009  -0.00019
  43        4XY         0.00003   0.00017  -0.00001   0.00002  -0.00001
  44        4XZ         0.00001   0.00006   0.00003  -0.00002  -0.00001
  45        4YZ         0.00001  -0.00014   0.00004  -0.00009   0.00001
  46 4   F  1S          0.00002   0.00010   0.99301  -0.00120   0.00005
  47        2S          0.00012   0.00008   0.01970   0.00005   0.00028
  48        2PX         0.00001   0.00001   0.00037   0.00000   0.00003
  49        2PY        -0.00001   0.00002   0.00048   0.00000   0.00000
  50        2PZ         0.00000  -0.00000  -0.00042  -0.00002  -0.00002
  51        3S         -0.00044  -0.00011   0.01482  -0.00012  -0.00100
  52        3PX        -0.00015  -0.00005  -0.00021  -0.00004  -0.00020
  53        3PY        -0.00002  -0.00016  -0.00031  -0.00002  -0.00006
  54        3PZ         0.00003   0.00000   0.00028   0.00016   0.00016
  55        4XX         0.00006   0.00004  -0.00804   0.00005   0.00018
  56        4YY         0.00008  -0.00012  -0.00815   0.00006   0.00021
  57        4ZZ         0.00007   0.00005  -0.00811  -0.00010   0.00017
  58        4XY        -0.00002  -0.00002  -0.00018  -0.00003  -0.00003
  59        4XZ         0.00002   0.00003   0.00016   0.00001   0.00003
  60        4YZ        -0.00001   0.00002   0.00020   0.00004   0.00001
  61 5   S  1S          0.99612   0.00000   0.00000   0.00000   0.00001
  62        2S          0.01487   0.00006   0.00003   0.00005   0.00004
  63        2PX        -0.00001   0.00001   0.00001   0.00001  -0.00000
  64        2PY         0.00002   0.00000  -0.00000  -0.00000  -0.00006
  65        2PZ        -0.00002   0.00000   0.00000  -0.00000   0.00005
  66        3S         -0.02414   0.00024   0.00011   0.00020   0.00007
  67        3PX         0.00009  -0.00009  -0.00011  -0.00009  -0.00011
  68        3PY        -0.00006   0.00001   0.00002   0.00003   0.00017
  69        3PZ         0.00003  -0.00003  -0.00000   0.00002  -0.00015
  70        4S          0.00151  -0.00153  -0.00111  -0.00138  -0.00332
  71        4PX        -0.00002   0.00048   0.00050   0.00053   0.00036
  72        4PY        -0.00005  -0.00083   0.00019   0.00001  -0.00054
  73        4PZ         0.00007  -0.00021  -0.00018   0.00074   0.00136
  74        5XX         0.00850   0.00003   0.00001   0.00003   0.00013
  75        5YY         0.00859   0.00004   0.00003   0.00003   0.00024
  76        5ZZ         0.00862   0.00002   0.00002   0.00004   0.00019
  77        5XY        -0.00001  -0.00001  -0.00000  -0.00001   0.00005
  78        5XZ         0.00001   0.00000  -0.00000   0.00001  -0.00003
  79        5YZ         0.00004  -0.00000  -0.00003  -0.00001  -0.00021
  80 6   O  1S          0.00001  -0.00004  -0.00003   0.00001  -0.00005
  81        2S         -0.00000  -0.00020  -0.00012   0.00005  -0.00004
  82        2PX         0.00003   0.00002   0.00003   0.00001  -0.00001
  83        2PY         0.00004  -0.00002   0.00001  -0.00001  -0.00004
  84        2PZ         0.00011   0.00002   0.00001   0.00000   0.00001
  85        3S          0.00042   0.00102   0.00059  -0.00029   0.00038
  86        3PX        -0.00007  -0.00021  -0.00018  -0.00005  -0.00005
  87        3PY        -0.00008   0.00010  -0.00010   0.00005   0.00012
  88        3PZ        -0.00028  -0.00022  -0.00009  -0.00001  -0.00022
  89        4XX         0.00001  -0.00011  -0.00008   0.00005  -0.00002
  90        4YY         0.00004  -0.00014  -0.00008   0.00005  -0.00006
  91        4ZZ        -0.00016  -0.00012  -0.00009   0.00005  -0.00007
  92        4XY        -0.00003  -0.00001   0.00001  -0.00000  -0.00002
  93        4XZ        -0.00011   0.00003   0.00002   0.00000   0.00002
  94        4YZ        -0.00007  -0.00002   0.00001  -0.00001   0.00005
  95 7   O  1S          0.00001   0.00001  -0.00003  -0.00004  -0.00004
  96        2S         -0.00003   0.00005  -0.00013  -0.00017  -0.00022
  97        2PX         0.00004   0.00001   0.00003   0.00002   0.00002
  98        2PY        -0.00013  -0.00001  -0.00000  -0.00002   0.00000
  99        2PZ        -0.00007   0.00001  -0.00002   0.00002   0.00003
 100        3S          0.00047  -0.00029   0.00062   0.00090   0.00146
 101        3PX        -0.00005  -0.00004  -0.00018  -0.00018  -0.00022
 102        3PY         0.00028   0.00004   0.00008   0.00022   0.00032
 103        3PZ         0.00014  -0.00004   0.00013  -0.00006  -0.00007
 104        4XX         0.00002   0.00004  -0.00008  -0.00010  -0.00011
 105        4YY        -0.00013   0.00005  -0.00009  -0.00009  -0.00020
 106        4ZZ         0.00000   0.00004  -0.00008  -0.00012  -0.00016
 107        4XY         0.00009  -0.00000  -0.00002  -0.00002  -0.00004
 108        4XZ         0.00005   0.00000  -0.00002  -0.00000   0.00003
 109        4YZ        -0.00012  -0.00000   0.00001  -0.00002   0.00003
 110 8   O  1S         -0.00001  -0.00003  -0.00000  -0.00003   0.99279
 111        2S         -0.00002  -0.00014  -0.00000  -0.00016   0.02580
 112        2PX        -0.00002   0.00001   0.00001   0.00001   0.00020
 113        2PY        -0.00001   0.00002  -0.00000   0.00002   0.00002
 114        2PZ        -0.00001  -0.00001   0.00000   0.00000   0.00089
 115        3S          0.00061   0.00073   0.00003   0.00080   0.01173
 116        3PX         0.00001  -0.00015  -0.00006  -0.00014  -0.00033
 117        3PY        -0.00018  -0.00013  -0.00000  -0.00021  -0.00051
 118        3PZ         0.00024   0.00019   0.00001   0.00004   0.00012
 119        4XX        -0.00005  -0.00007   0.00000  -0.00009  -0.00798
 120        4YY        -0.00010  -0.00009  -0.00000  -0.00008  -0.00800
 121        4ZZ        -0.00008  -0.00005   0.00000  -0.00011  -0.00804
 122        4XY        -0.00002   0.00001   0.00001   0.00002   0.00001
 123        4XZ         0.00005  -0.00002  -0.00001  -0.00001  -0.00002
 124        4YZ         0.00009  -0.00000   0.00000   0.00001   0.00001
 125 9   H  1S         -0.00008  -0.00003   0.00000  -0.00001   0.00034
 126        2S         -0.00010   0.00013  -0.00001   0.00001  -0.00081
                           6         7         8         9        10
                           O         O         O         O         O
     Eigenvalues --   -19.20182 -19.19421 -10.50016  -8.19917  -6.16452
   1 1   C  1S         -0.00001  -0.00001   0.99337   0.00002   0.00001
   2        2S         -0.00007  -0.00011   0.04666   0.00075  -0.00017
   3        2PX         0.00002   0.00001  -0.00070  -0.00009  -0.00003
   4        2PY         0.00004  -0.00002   0.00017  -0.00003  -0.00012
   5        2PZ         0.00002  -0.00004   0.00001   0.00000   0.00008
   6        3S          0.00037   0.00057  -0.01247  -0.00219  -0.00003
   7        3PX         0.00022   0.00037  -0.00301  -0.00191   0.00006
   8        3PY        -0.00044   0.00046   0.00003   0.00063  -0.00136
   9        3PZ        -0.00058   0.00048   0.00005   0.00008   0.00124
  10        4XX         0.00004   0.00004  -0.00830  -0.00065   0.00012
  11        4YY        -0.00002   0.00001  -0.00772  -0.00015   0.00010
  12        4ZZ         0.00002  -0.00003  -0.00778  -0.00017   0.00003
  13        4XY         0.00001  -0.00002   0.00003   0.00004  -0.00030
  14        4XZ         0.00002  -0.00001  -0.00004  -0.00003   0.00024
  15        4YZ         0.00000   0.00001   0.00002  -0.00000  -0.00015
  16 2   F  1S         -0.00000   0.00001  -0.00009  -0.00015  -0.00003
  17        2S          0.00000   0.00004  -0.00023  -0.00088  -0.00018
  18        2PX        -0.00003   0.00004   0.00000  -0.00020   0.00001
  19        2PY        -0.00001   0.00000  -0.00000   0.00003  -0.00012
  20        2PZ         0.00002  -0.00001   0.00002  -0.00002   0.00003
  21        3S         -0.00015  -0.00001   0.00133   0.00284   0.00080
  22        3PX         0.00006  -0.00012  -0.00002   0.00106   0.00007
  23        3PY         0.00002  -0.00003  -0.00007  -0.00013   0.00055
  24        3PZ        -0.00013   0.00007  -0.00059   0.00031  -0.00005
  25        4XX         0.00002   0.00003  -0.00014  -0.00046  -0.00006
  26        4YY        -0.00003   0.00005   0.00000  -0.00066  -0.00007
  27        4ZZ        -0.00005   0.00007  -0.00082  -0.00063  -0.00015
  28        4XY        -0.00001   0.00000  -0.00003   0.00001   0.00012
  29        4XZ        -0.00001  -0.00001  -0.00022   0.00020  -0.00003
  30        4YZ         0.00002  -0.00002  -0.00016  -0.00004   0.00005
  31 3   F  1S          0.00001  -0.00001  -0.00009  -0.00013  -0.00004
  32        2S          0.00004  -0.00002  -0.00020  -0.00074  -0.00024
  33        2PX         0.00004  -0.00003   0.00001  -0.00021  -0.00000
  34        2PY         0.00000  -0.00001  -0.00002   0.00002  -0.00005
  35        2PZ        -0.00001   0.00000  -0.00000  -0.00001   0.00012
  36        3S          0.00001  -0.00008   0.00122   0.00226   0.00096
  37        3PX        -0.00012   0.00007  -0.00002   0.00104   0.00009
  38        3PY        -0.00008   0.00011   0.00067  -0.00023   0.00013
  39        3PZ         0.00003  -0.00001   0.00018  -0.00000  -0.00057
  40        4XX         0.00003   0.00000  -0.00010  -0.00039  -0.00011
  41        4YY         0.00007  -0.00007  -0.00079  -0.00055  -0.00022
  42        4ZZ         0.00006  -0.00006  -0.00002  -0.00059  -0.00010
  43        4XY         0.00001   0.00001   0.00018  -0.00019   0.00004
  44        4XZ        -0.00000   0.00002   0.00005  -0.00005  -0.00011
  45        4YZ        -0.00002   0.00002  -0.00031  -0.00000   0.00004
  46 4   F  1S         -0.00003  -0.00003  -0.00009  -0.00013   0.00019
  47        2S         -0.00017  -0.00015  -0.00019  -0.00074   0.00109
  48        2PX        -0.00003  -0.00002  -0.00001  -0.00018   0.00013
  49        2PY        -0.00001   0.00001   0.00002   0.00002  -0.00001
  50        2PZ        -0.00001   0.00001  -0.00002   0.00001   0.00001
  51        3S          0.00051   0.00046   0.00114   0.00242  -0.00385
  52        3PX         0.00009   0.00006  -0.00008   0.00099  -0.00086
  53        3PY         0.00008  -0.00005  -0.00050   0.00002  -0.00011
  54        3PZ         0.00005  -0.00008   0.00044  -0.00016   0.00012
  55        4XX        -0.00011  -0.00009  -0.00017  -0.00033   0.00054
  56        4YY        -0.00011  -0.00016  -0.00043  -0.00058   0.00079
  57        4ZZ        -0.00017  -0.00010  -0.00033  -0.00053   0.00077
  58        4XY        -0.00000  -0.00000  -0.00025   0.00011  -0.00004
  59        4XZ        -0.00001   0.00001   0.00022  -0.00012   0.00004
  60        4YZ        -0.00000  -0.00001   0.00047   0.00002  -0.00007
  61 5   S  1S          0.00001   0.00002  -0.00001  -0.27991   0.00073
  62        2S         -0.00006  -0.00004  -0.00019   1.02297  -0.00289
  63        2PX         0.00003   0.00002  -0.00001   0.00013   0.23062
  64        2PY        -0.00004  -0.00000   0.00000   0.00177   0.72113
  65        2PZ        -0.00002   0.00001   0.00000  -0.00190  -0.63953
  66        3S          0.00084   0.00079  -0.00066   0.07239  -0.00051
  67        3PX        -0.00006  -0.00003  -0.00009   0.00031   0.00690
  68        3PY        -0.00009   0.00010  -0.00005   0.00006   0.02265
  69        3PZ        -0.00008   0.00020   0.00001  -0.00021  -0.01993
  70        4S         -0.00310  -0.00338   0.00765  -0.00788   0.00186
  71        4PX        -0.00042  -0.00052  -0.00302   0.00165  -0.00188
  72        4PY         0.00188  -0.00129   0.00123  -0.00102  -0.00359
  73        4PZ         0.00162  -0.00197  -0.00055   0.00009   0.00303
  74        5XX        -0.00021  -0.00014  -0.00011  -0.01519  -0.00052
  75        5YY        -0.00024  -0.00018  -0.00013  -0.01460   0.00058
  76        5ZZ        -0.00023  -0.00010  -0.00009  -0.01464  -0.00011
  77        5XY         0.00003   0.00003   0.00003  -0.00007   0.00077
  78        5XZ        -0.00001   0.00002  -0.00001   0.00010  -0.00069
  79        5YZ        -0.00002   0.00002   0.00007   0.00038  -0.00182
  80 6   O  1S         -0.00035   0.99274   0.00007  -0.00009   0.00015
  81        2S          0.00007   0.02570   0.00031   0.00046  -0.00011
  82        2PX        -0.00004  -0.00038  -0.00004   0.00000  -0.00002
  83        2PY         0.00005  -0.00026   0.00003  -0.00016   0.00001
  84        2PZ        -0.00001  -0.00089  -0.00000  -0.00030   0.00014
  85        3S         -0.00035   0.01267  -0.00181  -0.00342   0.00099
  86        3PX         0.00018  -0.00028   0.00055   0.00053  -0.00056
  87        3PY        -0.00032  -0.00004  -0.00013   0.00110  -0.00104
  88        3PZ        -0.00009  -0.00060   0.00043   0.00278  -0.00111
  89        4XX         0.00006  -0.00810   0.00021   0.00028   0.00012
  90        4YY         0.00004  -0.00811   0.00013   0.00022   0.00028
  91        4ZZ         0.00008  -0.00807   0.00014   0.00021  -0.00033
  92        4XY         0.00003  -0.00001  -0.00001   0.00002   0.00028
  93        4XZ        -0.00000   0.00002  -0.00006   0.00007   0.00015
  94        4YZ         0.00000  -0.00000   0.00005   0.00000   0.00048
  95 7   O  1S          0.99272   0.00038   0.00005  -0.00011   0.00018
  96        2S          0.02570   0.00006   0.00025   0.00069  -0.00002
  97        2PX        -0.00037  -0.00004  -0.00003  -0.00003  -0.00003
  98        2PY         0.00090   0.00002   0.00001   0.00038  -0.00013
  99        2PZ         0.00051  -0.00005  -0.00003   0.00027  -0.00006
 100        3S          0.01294  -0.00021  -0.00149  -0.00465   0.00054
 101        3PX        -0.00024   0.00018   0.00048   0.00050  -0.00035
 102        3PY         0.00062   0.00008  -0.00044  -0.00282   0.00062
 103        3PZ         0.00019   0.00033   0.00004  -0.00173   0.00123
 104        4XX        -0.00817   0.00004   0.00018   0.00037   0.00016
 105        4YY        -0.00807   0.00007   0.00008   0.00041  -0.00043
 106        4ZZ        -0.00816   0.00002   0.00010   0.00034   0.00049
 107        4XY        -0.00004   0.00001   0.00004  -0.00009  -0.00005
 108        4XZ        -0.00002  -0.00003   0.00002  -0.00006  -0.00023
 109        4YZ         0.00005   0.00002   0.00005   0.00009   0.00028
 110 8   O  1S         -0.00005  -0.00001   0.00008   0.00003   0.00005
 111        2S         -0.00012  -0.00015   0.00036   0.00039   0.00121
 112        2PX        -0.00002  -0.00001   0.00000   0.00017   0.00007
 113        2PY         0.00004  -0.00002  -0.00003   0.00009   0.00007
 114        2PZ         0.00004  -0.00005   0.00000   0.00003   0.00007
 115        3S          0.00081   0.00097  -0.00219  -0.00211  -0.00503
 116        3PX         0.00003  -0.00001   0.00035  -0.00019   0.00104
 117        3PY        -0.00036  -0.00002   0.00052   0.00140   0.00318
 118        3PZ        -0.00014   0.00042  -0.00036  -0.00157  -0.00312
 119        4XX        -0.00008  -0.00009   0.00030   0.00032   0.00071
 120        4YY        -0.00013  -0.00011   0.00015  -0.00016  -0.00031
 121        4ZZ        -0.00012  -0.00014   0.00012   0.00006   0.00018
 122        4XY         0.00003  -0.00001  -0.00002  -0.00022  -0.00060
 123        4XZ         0.00003  -0.00003   0.00001   0.00004   0.00031
 124        4YZ        -0.00001  -0.00000  -0.00003   0.00037   0.00090
 125 9   H  1S          0.00002  -0.00006   0.00008   0.00025   0.00039
 126        2S         -0.00007   0.00010  -0.00030   0.00077   0.00066
                          11        12        13        14        15
                           O         O         O         O         O
     Eigenvalues --    -6.16255  -6.16251  -1.33273  -1.25305  -1.24422
   1 1   C  1S         -0.00006  -0.00009  -0.09637   0.00649   0.00004
   2        2S         -0.00081  -0.00187   0.19651  -0.01322  -0.00006
   3        2PX         0.00000   0.00008  -0.05808   0.01406  -0.00967
   4        2PY        -0.00006   0.00003   0.01879   0.13287  -0.04671
   5        2PZ        -0.00006   0.00002   0.00172   0.05019   0.12942
   6        3S          0.00279   0.00603   0.01630  -0.00383  -0.00023
   7        3PX         0.00149   0.00383   0.01768  -0.00230   0.00006
   8        3PY        -0.00197   0.00079  -0.00253  -0.00478  -0.00016
   9        3PZ        -0.00259   0.00084   0.00053  -0.00303  -0.00263
  10        4XX         0.00045   0.00131  -0.00929  -0.00183   0.00206
  11        4YY        -0.00005   0.00019   0.00201   0.01703   0.00916
  12        4ZZ         0.00015   0.00008  -0.00150  -0.01459  -0.01130
  13        4XY        -0.00029  -0.00004  -0.00070  -0.01470   0.00713
  14        4XZ        -0.00024   0.00013  -0.00076  -0.00422  -0.01624
  15        4YZ         0.00002   0.00004   0.00169   0.01204  -0.01444
  16 2   F  1S          0.00025   0.00017  -0.11117   0.10773   0.15961
  17        2S          0.00147   0.00100   0.24335  -0.24196  -0.35963
  18        2PX         0.00014   0.00027   0.02024  -0.01691  -0.02680
  19        2PY        -0.00007   0.00004   0.01117   0.00378  -0.01460
  20        2PZ         0.00006   0.00004   0.06002  -0.03970  -0.05092
  21        3S         -0.00540  -0.00317   0.24024  -0.22900  -0.33806
  22        3PX        -0.00108  -0.00146   0.01101  -0.00916  -0.01518
  23        3PY         0.00031  -0.00021   0.00800   0.00362  -0.00846
  24        3PZ        -0.00078  -0.00040   0.04059  -0.02192  -0.02660
  25        4XX         0.00079   0.00049   0.00325  -0.00498  -0.00790
  26        4YY         0.00093   0.00074   0.00137  -0.00308  -0.00577
  27        4ZZ         0.00097   0.00070   0.01563  -0.01061  -0.01424
  28        4XY         0.00003  -0.00007   0.00105  -0.00013  -0.00102
  29        4XZ        -0.00020  -0.00027   0.00608  -0.00356  -0.00518
  30        4YZ         0.00009  -0.00003   0.00305   0.00009  -0.00250
  31 3   F  1S         -0.00006   0.00029  -0.13453  -0.17638   0.00401
  32        2S         -0.00036   0.00171   0.29655   0.39824  -0.00923
  33        2PX         0.00007   0.00029   0.02086   0.02682  -0.00147
  34        2PY         0.00002  -0.00008  -0.06958  -0.05795  -0.00284
  35        2PZ        -0.00009   0.00000  -0.02220  -0.01756   0.01240
  36        3S          0.00161  -0.00591   0.28725   0.37164  -0.00790
  37        3PX        -0.00019  -0.00176   0.01045   0.01496  -0.00097
  38        3PY        -0.00025   0.00090  -0.04399  -0.02847  -0.00228
  39        3PZ         0.00045   0.00012  -0.01429  -0.00827   0.00821
  40        4XX        -0.00021   0.00092   0.00397   0.00847  -0.00032
  41        4YY        -0.00021   0.00110   0.01746   0.01545   0.00056
  42        4ZZ        -0.00021   0.00116   0.00351   0.00703  -0.00111
  43        4XY         0.00002   0.00034  -0.00556  -0.00478   0.00009
  44        4XZ         0.00008   0.00009  -0.00173  -0.00143   0.00045
  45        4YZ        -0.00011   0.00002   0.00570   0.00317  -0.00153
  46 4   F  1S          0.00007   0.00019  -0.11054   0.09969  -0.16557
  47        2S          0.00041   0.00110   0.24167  -0.22398   0.37313
  48        2PX         0.00010   0.00027   0.02707  -0.02028   0.03356
  49        2PY        -0.00011   0.00005   0.04357  -0.01767   0.04164
  50        2PZ        -0.00013   0.00003  -0.03762   0.02971  -0.02934
  51        3S         -0.00134  -0.00358   0.23959  -0.21147   0.35060
  52        3PX        -0.00057  -0.00153   0.01599  -0.01127   0.01891
  53        3PY         0.00048  -0.00042   0.03005  -0.00831   0.02251
  54        3PZ         0.00073   0.00000  -0.02571   0.01752  -0.01455
  55        4XX         0.00019   0.00050   0.00459  -0.00549   0.00949
  56        4YY         0.00042   0.00077   0.00853  -0.00504   0.01104
  57        4ZZ         0.00019   0.00084   0.00667  -0.00689   0.00862
  58        4XY         0.00004  -0.00022   0.00580  -0.00250   0.00483
  59        4XZ         0.00018   0.00013  -0.00511   0.00308  -0.00394
  60        4YZ         0.00000  -0.00002  -0.00787   0.00349  -0.00487
  61 5   S  1S         -0.00014  -0.00010   0.00478  -0.00085  -0.00020
  62        2S          0.00056   0.00055  -0.02266   0.00369   0.00098
  63        2PX         0.38080   0.88545   0.00769  -0.00079   0.00029
  64        2PY         0.53567  -0.41811  -0.00073  -0.00361   0.00083
  65        2PZ         0.74135  -0.15236   0.00040  -0.00166  -0.00339
  66        3S         -0.00032  -0.00015   0.03523  -0.00797  -0.00143
  67        3PX         0.01201   0.02779  -0.01804   0.00182  -0.00043
  68        3PY         0.01801  -0.01392   0.00183   0.00756  -0.00166
  69        3PZ         0.02466  -0.00510  -0.00099   0.00379   0.00731
  70        4S         -0.00022   0.00234   0.01256   0.00248   0.00000
  71        4PX        -0.00185  -0.00427  -0.00498   0.00222  -0.00151
  72        4PY        -0.00131   0.00123   0.00293   0.01641  -0.00277
  73        4PZ        -0.00145  -0.00024  -0.00016   0.00831   0.01338
  74        5XX        -0.00017  -0.00101   0.00839  -0.00099   0.00064
  75        5YY        -0.00062   0.00156  -0.00189   0.00076  -0.00043
  76        5ZZ         0.00155   0.00088  -0.00211   0.00034  -0.00029
  77        5XY         0.00093  -0.00027  -0.00179  -0.00275   0.00134
  78        5XZ         0.00108  -0.00039   0.00058  -0.00098  -0.00310
  79        5YZ        -0.00014   0.00086   0.00077  -0.00040   0.00019
  80 6   O  1S         -0.00030   0.00005  -0.00411   0.00017  -0.00066
  81        2S          0.00109   0.00036   0.01002   0.00186   0.00326
  82        2PX        -0.00018  -0.00008  -0.00286  -0.00018  -0.00075
  83        2PY        -0.00008  -0.00005  -0.00104   0.00073  -0.00060
  84        2PZ        -0.00042  -0.00007  -0.00461  -0.00014  -0.00054
  85        3S         -0.00717  -0.00156   0.00314  -0.01020  -0.00691
  86        3PX         0.00198  -0.00021   0.00071  -0.00002   0.00030
  87        3PY         0.00089   0.00072  -0.00072  -0.00164   0.00160
  88        3PZ         0.00474   0.00094  -0.00082   0.00222   0.00026
  89        4XX         0.00051   0.00058   0.00033   0.00084   0.00065
  90        4YY         0.00056   0.00018   0.00035   0.00083   0.00042
  91        4ZZ         0.00030  -0.00005   0.00138   0.00067   0.00104
  92        4XY         0.00007   0.00004   0.00016  -0.00007  -0.00002
  93        4XZ        -0.00001   0.00041   0.00048   0.00000   0.00003
  94        4YZ         0.00017  -0.00037   0.00047   0.00029   0.00006
  95 7   O  1S          0.00034  -0.00024  -0.00464   0.00262   0.00082
  96        2S         -0.00073   0.00119   0.01091  -0.00827  -0.00228
  97        2PX         0.00013  -0.00022  -0.00284   0.00164   0.00033
  98        2PY        -0.00045   0.00049   0.00494  -0.00247  -0.00114
  99        2PZ        -0.00016   0.00026   0.00241  -0.00133   0.00044
 100        3S          0.00523  -0.00705   0.00539   0.00715   0.00130
 101        3PX        -0.00157   0.00100   0.00070   0.00003   0.00065
 102        3PY         0.00323  -0.00389   0.00076  -0.00004   0.00144
 103        3PZ         0.00091  -0.00203   0.00084   0.00044  -0.00217
 104        4XX        -0.00005   0.00076   0.00019  -0.00089  -0.00024
 105        4YY        -0.00033   0.00049   0.00112  -0.00144   0.00001
 106        4ZZ        -0.00045   0.00053   0.00045  -0.00080  -0.00033
 107        4XY        -0.00020  -0.00038  -0.00043   0.00019   0.00013
 108        4XZ        -0.00002  -0.00020  -0.00024   0.00002  -0.00004
 109        4YZ        -0.00042  -0.00007   0.00067  -0.00057  -0.00025
 110 8   O  1S          0.00011   0.00012  -0.00393  -0.00031   0.00178
 111        2S          0.00047   0.00050   0.00888   0.00087  -0.00454
 112        2PX         0.00005  -0.00011  -0.00175  -0.00014   0.00049
 113        2PY         0.00014  -0.00004  -0.00230   0.00048   0.00097
 114        2PZ         0.00011   0.00002   0.00281   0.00061  -0.00067
 115        3S         -0.00201  -0.00223   0.00449  -0.00197   0.00121
 116        3PX        -0.00041   0.00010   0.00019  -0.00069   0.00187
 117        3PY        -0.00086   0.00068  -0.00011   0.00054  -0.00161
 118        3PZ        -0.00129  -0.00018   0.00078  -0.00187  -0.00064
 119        4XX         0.00046   0.00058   0.00010   0.00014  -0.00039
 120        4YY         0.00083  -0.00008   0.00055   0.00008   0.00012
 121        4ZZ        -0.00032   0.00054   0.00037  -0.00048  -0.00018
 122        4XY         0.00020   0.00033   0.00020  -0.00005  -0.00026
 123        4XZ        -0.00001  -0.00041  -0.00004  -0.00022   0.00006
 124        4YZ         0.00022   0.00019  -0.00054   0.00018   0.00019
 125 9   H  1S          0.00036   0.00003   0.00114   0.00061  -0.00063
 126        2S          0.00127   0.00020  -0.00058  -0.00255   0.00038
                          16        17        18        19        20
                           O         O         O         O         O
     Eigenvalues --    -1.18722  -1.06681  -1.04655  -0.79402  -0.68807
   1 1   C  1S         -0.00644   0.00105   0.00031  -0.13063   0.08608
   2        2S          0.00157  -0.00109  -0.00033   0.30216  -0.21226
   3        2PX         0.03547  -0.00352  -0.00014   0.15564   0.21503
   4        2PY        -0.00310  -0.00230   0.00145  -0.01200  -0.02300
   5        2PZ         0.00213  -0.00121  -0.00337   0.00544  -0.00664
   6        3S          0.05312  -0.00618  -0.00074   0.22539  -0.12265
   7        3PX         0.02258  -0.00258  -0.00057   0.08978   0.00316
   8        3PY        -0.00032  -0.00536   0.00284  -0.00913  -0.00140
   9        3PZ         0.00109  -0.00199  -0.00478   0.00106  -0.00458
  10        4XX         0.00709  -0.00042  -0.00037   0.00631   0.01157
  11        4YY        -0.00236   0.00104   0.00048  -0.01124   0.00104
  12        4ZZ        -0.00289  -0.00043  -0.00045  -0.01167   0.00277
  13        4XY        -0.00095  -0.00124   0.00094  -0.00194   0.00056
  14        4XZ         0.00010  -0.00043  -0.00146   0.00048   0.00013
  15        4YZ        -0.00005   0.00057  -0.00072  -0.00009  -0.00069
  16 2   F  1S          0.01321   0.00200   0.00304   0.04870  -0.04174
  17        2S         -0.03006  -0.00597  -0.00977  -0.10736   0.08971
  18        2PX         0.00217   0.00049   0.00134   0.07969  -0.00404
  19        2PY        -0.00109  -0.00085   0.00053   0.01237  -0.04091
  20        2PZ        -0.00420   0.00010  -0.00017   0.09595  -0.20865
  21        3S         -0.03162  -0.00222  -0.00275  -0.15015   0.13653
  22        3PX         0.00048   0.00183   0.00354   0.04207   0.00299
  23        3PY        -0.00117  -0.00131   0.00026   0.00798  -0.02468
  24        3PZ        -0.00445  -0.00016  -0.00047   0.05637  -0.12551
  25        4XX         0.00003  -0.00031  -0.00079   0.00315   0.00358
  26        4YY        -0.00120  -0.00069  -0.00177  -0.00237   0.00094
  27        4ZZ        -0.00190  -0.00099  -0.00184   0.00750  -0.01594
  28        4XY        -0.00019  -0.00061   0.00031   0.00096  -0.00022
  29        4XZ        -0.00021   0.00016   0.00017   0.00724  -0.00142
  30        4YZ        -0.00021  -0.00001  -0.00009   0.00175  -0.00397
  31 3   F  1S          0.01024  -0.00492   0.00039   0.04993  -0.04641
  32        2S         -0.02235   0.01449  -0.00163  -0.11037   0.09828
  33        2PX         0.00287  -0.00211   0.00030   0.07924   0.00209
  34        2PY         0.00315  -0.00015   0.00067  -0.10475   0.23344
  35        2PZ         0.00129  -0.00007  -0.00120  -0.03055   0.07353
  36        3S         -0.02786   0.00700   0.00023  -0.15346   0.15763
  37        3PX         0.00059  -0.00457   0.00106   0.04116   0.00730
  38        3PY         0.00428  -0.00073   0.00053  -0.06163   0.13760
  39        3PZ         0.00148  -0.00072  -0.00123  -0.01817   0.04371
  40        4XX         0.00062   0.00074  -0.00012   0.00234   0.00313
  41        4YY        -0.00116   0.00228  -0.00043   0.00765  -0.01640
  42        4ZZ        -0.00069   0.00213  -0.00046  -0.00182  -0.00059
  43        4XY         0.00004   0.00035   0.00017  -0.00708   0.00044
  44        4XZ         0.00006  -0.00002  -0.00069  -0.00206  -0.00002
  45        4YZ        -0.00022   0.00011  -0.00001   0.00359  -0.00657
  46 4   F  1S          0.01127   0.00080  -0.00322   0.04750  -0.04577
  47        2S         -0.02410  -0.00248   0.00847  -0.10552   0.09784
  48        2PX         0.00190   0.00001  -0.00128   0.08861  -0.04339
  49        2PY        -0.00291  -0.00035  -0.00033   0.06289  -0.17022
  50        2PZ         0.00255  -0.00052  -0.00021  -0.05779   0.14317
  51        3S         -0.03034  -0.00102   0.00688  -0.14427   0.15224
  52        3PX        -0.00119   0.00076  -0.00192   0.04763  -0.02082
  53        3PY        -0.00340  -0.00083   0.00017   0.03839  -0.10222
  54        3PZ         0.00260  -0.00074  -0.00087  -0.03457   0.08624
  55        4XX         0.00052  -0.00024   0.00022   0.00419   0.00176
  56        4YY        -0.00064  -0.00028   0.00091   0.00192  -0.00893
  57        4ZZ        -0.00050  -0.00047   0.00086   0.00091  -0.00619
  58        4XY        -0.00042  -0.00035  -0.00019   0.00569  -0.00383
  59        4XZ         0.00025  -0.00044  -0.00016  -0.00520   0.00309
  60        4YZ         0.00038   0.00003   0.00004  -0.00501   0.01028
  61 5   S  1S          0.05300   0.00015  -0.00637   0.02895   0.03033
  62        2S         -0.23700  -0.00095   0.02907  -0.12527  -0.13465
  63        2PX        -0.03319   0.00201   0.00860   0.11276   0.03770
  64        2PY         0.01742   0.11341  -0.02171  -0.02703  -0.03459
  65        2PZ         0.00204   0.07370   0.09790   0.01552   0.02752
  66        3S          0.49359   0.00337  -0.06339   0.30766   0.32569
  67        3PX         0.06267  -0.00363  -0.01921  -0.28269  -0.09434
  68        3PY        -0.03347  -0.25212   0.04663   0.06829   0.08764
  69        3PZ        -0.00668  -0.16464  -0.21804  -0.03872  -0.06971
  70        4S         -0.06005   0.01123  -0.00407   0.01743   0.14079
  71        4PX        -0.00087   0.00084   0.00179   0.01306  -0.04432
  72        4PY        -0.00853   0.03051  -0.00814  -0.00018   0.01887
  73        4PZ         0.00557   0.01537   0.02006   0.00448  -0.00553
  74        5XX        -0.03343  -0.00494   0.00348   0.04428  -0.00280
  75        5YY         0.00448   0.03599   0.03439  -0.02311  -0.01087
  76        5ZZ         0.00104  -0.03656  -0.02731  -0.02425  -0.00707
  77        5XY        -0.00564  -0.03679   0.00337  -0.00360   0.00405
  78        5XZ         0.00225  -0.02816  -0.03348  -0.00054  -0.00334
  79        5YZ         0.02443   0.03580  -0.04350  -0.01796  -0.01838
  80 6   O  1S         -0.09303   0.10585   0.13060   0.05135   0.04638
  81        2S          0.19850  -0.23243  -0.29205  -0.11714  -0.10026
  82        2PX        -0.03262   0.03239   0.04076  -0.03429  -0.03395
  83        2PY        -0.02428   0.00917   0.03311   0.00413  -0.00137
  84        2PZ        -0.08762   0.07629   0.08424  -0.00033  -0.04204
  85        3S          0.19140  -0.21730  -0.26235  -0.13397  -0.15786
  86        3PX        -0.01467   0.00970   0.01339  -0.01833  -0.00962
  87        3PY        -0.00660  -0.00297   0.00991  -0.00078  -0.00317
  88        3PZ        -0.03734   0.02174   0.02390  -0.00185  -0.01316
  89        4XX        -0.00305   0.00225   0.00135   0.00335   0.00364
  90        4YY        -0.00444   0.00466   0.00312   0.00019   0.00146
  91        4ZZ         0.01166  -0.00484  -0.00719   0.00064   0.00569
  92        4XY         0.00286  -0.00094  -0.00221   0.00037   0.00003
  93        4XZ         0.00793  -0.00545  -0.00608   0.00359   0.00306
  94        4YZ         0.00587  -0.00096  -0.00419  -0.00034   0.00053
  95 7   O  1S         -0.11388  -0.15266  -0.00435   0.05279   0.05135
  96        2S          0.24804   0.34126   0.00979  -0.12326  -0.11522
  97        2PX        -0.03510  -0.04391  -0.00131  -0.03596  -0.03196
  98        2PY         0.10087   0.10005   0.00881   0.00360   0.05070
  99        2PZ         0.05325   0.05332  -0.01191  -0.00646   0.00360
 100        3S          0.21586   0.29335   0.00595  -0.12902  -0.16348
 101        3PX        -0.01317  -0.01276   0.00052  -0.01906  -0.00937
 102        3PY         0.03470   0.01952   0.00108   0.00599   0.01858
 103        3PZ         0.01609   0.01059  -0.00738  -0.00008   0.00093
 104        4XX        -0.00305  -0.00208   0.00035   0.00228   0.00232
 105        4YY         0.01175   0.00604   0.00104   0.00047   0.00537
 106        4ZZ        -0.00054  -0.00244  -0.00170  -0.00085   0.00047
 107        4XY        -0.00720  -0.00632  -0.00086  -0.00394  -0.00319
 108        4XZ        -0.00414  -0.00307   0.00067  -0.00165  -0.00079
 109        4YZ         0.01092   0.00612  -0.00167  -0.00033   0.00117
 110 8   O  1S         -0.07779   0.09163  -0.16920   0.03622   0.03412
 111        2S          0.16332  -0.20355   0.37594  -0.08466  -0.07386
 112        2PX        -0.00510  -0.00390   0.00565  -0.06383  -0.09219
 113        2PY        -0.03462   0.00288  -0.01957  -0.05524  -0.13362
 114        2PZ         0.04938  -0.05288   0.06994   0.00430   0.02685
 115        3S          0.18425  -0.20840   0.39221  -0.09530  -0.12157
 116        3PX        -0.00655  -0.00014   0.00532  -0.03476  -0.04706
 117        3PY        -0.02377   0.00381  -0.00531  -0.02745  -0.06413
 118        3PZ         0.03244  -0.03134   0.04421  -0.00157   0.00445
 119        4XX        -0.00363   0.00121  -0.00228   0.00007   0.00060
 120        4YY         0.00398  -0.00303   0.00512  -0.00091   0.00189
 121        4ZZ         0.00321  -0.00349   0.00357  -0.00080   0.00213
 122        4XY         0.00682  -0.00595   0.01096  -0.00087  -0.00200
 123        4XZ        -0.00097  -0.00190   0.00332  -0.00583  -0.00751
 124        4YZ        -0.00656   0.00085  -0.00094  -0.00497  -0.00997
 125 9   H  1S          0.02828  -0.04672   0.07506  -0.04682  -0.07500
 126        2S          0.00628  -0.00996  -0.00045  -0.01661  -0.03523
                          21        22        23        24        25
                           O         O         O         O         O
     Eigenvalues --    -0.62231  -0.61610  -0.60629  -0.55324  -0.51193
   1 1   C  1S          0.00604  -0.00228   0.00942   0.00963  -0.00504
   2        2S         -0.01184   0.00546  -0.02099  -0.02593   0.01646
   3        2PX        -0.11140  -0.06374  -0.18824  -0.05026   0.01501
   4        2PY         0.26680  -0.19207  -0.14082   0.03533  -0.01132
   5        2PZ        -0.11128  -0.29117   0.17330  -0.03772  -0.00712
   6        3S         -0.02062   0.00648  -0.02118   0.00098   0.00236
   7        3PX        -0.03224  -0.01633  -0.06147  -0.02675   0.01982
   8        3PY         0.07695  -0.04952  -0.04041   0.00093  -0.03309
   9        3PZ        -0.03826  -0.08544   0.05084  -0.01153  -0.00404
  10        4XX        -0.00191   0.00128   0.00520   0.00642  -0.00296
  11        4YY         0.00440  -0.01259  -0.00058  -0.00072   0.00362
  12        4ZZ        -0.00146   0.01148  -0.00180  -0.00152  -0.00177
  13        4XY        -0.00938   0.00832   0.00904  -0.00745   0.01526
  14        4XZ         0.00312   0.01166  -0.01136   0.00869   0.00711
  15        4YZ         0.00805  -0.00239  -0.00706   0.00033   0.00339
  16 2   F  1S          0.01437   0.05382  -0.01538   0.00371   0.00072
  17        2S         -0.02651  -0.09663   0.02768   0.00317   0.00270
  18        2PX        -0.00808   0.14540  -0.16150  -0.07500  -0.02399
  19        2PY         0.15813  -0.01018  -0.09900   0.05558  -0.08314
  20        2PZ         0.08131   0.34964  -0.04203   0.06567   0.05845
  21        3S         -0.06191  -0.23756   0.06855  -0.03755  -0.00787
  22        3PX        -0.00790   0.07981  -0.09812  -0.05674  -0.02162
  23        3PY         0.09562  -0.00923  -0.05963   0.03772  -0.05655
  24        3PZ         0.04520   0.19642  -0.02094   0.03561   0.03925
  25        4XX         0.00044   0.00888  -0.00685   0.00087  -0.00085
  26        4YY         0.00357   0.00607  -0.00363   0.00612   0.00137
  27        4ZZ         0.00471   0.02123   0.00022   0.00754   0.00525
  28        4XY         0.00411  -0.00049  -0.00365  -0.00006  -0.00062
  29        4XZ        -0.00157   0.00761  -0.00807  -0.00351  -0.00040
  30        4YZ         0.00877  -0.00115  -0.00450   0.00317  -0.00313
  31 3   F  1S          0.03781  -0.03904  -0.00742   0.00212  -0.00165
  32        2S         -0.06683   0.06914   0.01505   0.00001  -0.00979
  33        2PX         0.04630  -0.15847  -0.14993  -0.07533   0.17851
  34        2PY        -0.22594   0.27785  -0.02942  -0.03206   0.07097
  35        2PZ        -0.18294  -0.04673   0.12737  -0.07174   0.02570
  36        3S         -0.16862   0.17561   0.03036  -0.01731   0.03984
  37        3PX         0.02073  -0.09195  -0.09448  -0.05251   0.12766
  38        3PY        -0.12571   0.15604  -0.02092  -0.01628   0.03820
  39        3PZ        -0.10705  -0.03289   0.07815  -0.04768   0.01330
  40        4XX         0.00453  -0.00827  -0.00472  -0.00059   0.00057
  41        4YY         0.01305  -0.01625   0.00579   0.00261  -0.00886
  42        4ZZ         0.00903  -0.00247  -0.00356   0.00379  -0.00720
  43        4XY        -0.00121   0.00912   0.00694   0.00370  -0.00691
  44        4XZ        -0.00338  -0.00035   0.00521   0.00054  -0.00176
  45        4YZ         0.00897   0.00337  -0.00514   0.00346  -0.00045
  46 4   F  1S         -0.03553  -0.00239   0.04168  -0.00483   0.00046
  47        2S          0.06564   0.00427  -0.07042   0.00921   0.00330
  48        2PX        -0.21331  -0.04732   0.08015  -0.07181   0.00026
  49        2PY        -0.07864  -0.10912   0.25110  -0.03942  -0.05115
  50        2PZ         0.13107  -0.13894  -0.19016   0.02158  -0.08772
  51        3S          0.15585   0.01238  -0.19221   0.01469  -0.00976
  52        3PX        -0.12676  -0.02939   0.03587  -0.04468  -0.00424
  53        3PY        -0.03879  -0.06570   0.14488  -0.02586  -0.03574
  54        3PZ         0.07274  -0.08611  -0.10734   0.01458  -0.05989
  55        4XX        -0.01227  -0.00283   0.00551  -0.00124   0.00036
  56        4YY        -0.00251  -0.00717   0.01590  -0.00122  -0.00100
  57        4ZZ        -0.00666   0.00849   0.01199  -0.00069   0.00624
  58        4XY        -0.00620  -0.00551   0.00360  -0.00307  -0.00037
  59        4XZ         0.00773  -0.00333  -0.00208   0.00239  -0.00102
  60        4YZ         0.00123  -0.00230  -0.00754   0.00016  -0.00083
  61 5   S  1S          0.00823   0.00222   0.01657   0.02742  -0.00164
  62        2S         -0.03365  -0.00845  -0.06887  -0.11378   0.00452
  63        2PX        -0.07096  -0.02174  -0.08040  -0.03666  -0.03369
  64        2PY        -0.05567  -0.00378  -0.03394   0.07706  -0.13078
  65        2PZ         0.05140   0.02992   0.03620  -0.09495  -0.06003
  66        3S          0.09989   0.02895   0.19843   0.33543  -0.02912
  67        3PX         0.18285   0.05565   0.20740   0.09537   0.09040
  68        3PY         0.14484   0.00900   0.08788  -0.20276   0.35406
  69        3PZ        -0.13387  -0.07913  -0.09400   0.25298   0.16717
  70        4S         -0.01455  -0.01525  -0.00346   0.02179   0.01128
  71        4PX         0.03259   0.01241   0.03726   0.01654   0.03591
  72        4PY         0.01731  -0.00897   0.00880  -0.02881   0.10271
  73        4PZ        -0.01086  -0.01351  -0.00825   0.05034   0.03692
  74        5XX        -0.02053  -0.00440  -0.01899  -0.00127   0.01344
  75        5YY         0.00338  -0.00436  -0.00226   0.00064   0.01007
  76        5ZZ         0.01166   0.00747   0.00819  -0.02806  -0.01869
  77        5XY        -0.00757   0.01358   0.01476  -0.00426   0.01178
  78        5XZ        -0.00140   0.01496  -0.01712   0.00876   0.00262
  79        5YZ        -0.01540  -0.00690  -0.01972   0.01245   0.00858
  80 6   O  1S          0.00785  -0.00901   0.02872   0.08526   0.05232
  81        2S         -0.01647   0.02081  -0.06564  -0.18531  -0.10677
  82        2PX         0.03537   0.03226   0.02256  -0.06735  -0.05134
  83        2PY         0.01933   0.00168  -0.00686  -0.13663   0.09460
  84        2PZ        -0.04368  -0.00234  -0.07950  -0.21113  -0.21890
  85        3S         -0.02548   0.03730  -0.09290  -0.33002  -0.24637
  86        3PX         0.01779   0.01827   0.01017  -0.02420  -0.01658
  87        3PY         0.00745   0.00069  -0.00442  -0.06815   0.06603
  88        3PZ        -0.02219  -0.00492  -0.03934  -0.09584  -0.10146
  89        4XX        -0.00222  -0.00196  -0.00251   0.00308   0.00337
  90        4YY        -0.00077   0.00016  -0.00120   0.00610  -0.00074
  91        4ZZ         0.00663   0.00107   0.00884   0.01616   0.01961
  92        4XY        -0.00211  -0.00045  -0.00080   0.00443  -0.00425
  93        4XZ        -0.00170  -0.00206  -0.00071   0.00524   0.00512
  94        4YZ        -0.00079  -0.00031   0.00138   0.00992  -0.00731
  95 7   O  1S          0.01229   0.01474   0.03597   0.06112  -0.06884
  96        2S         -0.02669  -0.03417  -0.08246  -0.13530   0.13884
  97        2PX         0.05025  -0.00584   0.03681  -0.03144   0.16227
  98        2PY         0.06378   0.03211   0.10023   0.11132  -0.20906
  99        2PZ        -0.02475  -0.00843   0.00960   0.21007  -0.10941
 100        3S         -0.03784  -0.05248  -0.11779  -0.22537   0.32864
 101        3PX         0.02717  -0.00543   0.01881  -0.01103   0.07349
 102        3PY         0.03121   0.01438   0.04832   0.04636  -0.08951
 103        3PZ        -0.01316  -0.00512   0.00191   0.10930  -0.03953
 104        4XX        -0.00271   0.00000  -0.00314   0.00025  -0.00941
 105        4YY         0.00828   0.00350   0.01011   0.00456  -0.01545
 106        4ZZ        -0.00121  -0.00114  -0.00057   0.01119  -0.00809
 107        4XY         0.00226  -0.00084   0.00144  -0.00091   0.01187
 108        4XZ         0.00334   0.00067   0.00182  -0.00562   0.00593
 109        4YZ        -0.00035   0.00052   0.00279   0.01429  -0.00586
 110 8   O  1S          0.02467   0.00513   0.02128   0.01102   0.04460
 111        2S         -0.05742  -0.01238  -0.04479  -0.03341  -0.09801
 112        2PX        -0.09148  -0.02582  -0.05790   0.15902   0.03551
 113        2PY        -0.19832  -0.06888  -0.21711   0.18234   0.02201
 114        2PZ         0.03497   0.00064   0.04498   0.06188   0.24525
 115        3S         -0.07814  -0.01393  -0.07158  -0.01072  -0.18344
 116        3PX        -0.05639  -0.01649  -0.02733   0.09639   0.02766
 117        3PY        -0.11015  -0.03840  -0.12276   0.10045   0.02546
 118        3PZ         0.01118   0.00055   0.01913   0.05251   0.15108
 119        4XX        -0.00217  -0.00080  -0.00237  -0.00233  -0.00137
 120        4YY         0.00096   0.00074   0.00476  -0.00457  -0.00517
 121        4ZZ         0.00060  -0.00058   0.00405   0.00391   0.02135
 122        4XY        -0.00358  -0.00075  -0.00425   0.00125  -0.00292
 123        4XZ        -0.00710  -0.00157  -0.00435   0.01052   0.00260
 124        4YZ        -0.01329  -0.00442  -0.01488   0.00829  -0.00024
 125 9   H  1S         -0.09280  -0.03188  -0.08824   0.11379   0.06254
 126        2S         -0.04671  -0.01211  -0.04901   0.05847   0.02884
                          26        27        28        29        30
                           O         O         O         O         O
     Eigenvalues --    -0.49390  -0.49189  -0.48952  -0.46811  -0.45820
   1 1   C  1S         -0.01337   0.00603  -0.00859  -0.00125   0.00050
   2        2S          0.04019  -0.01777   0.02301   0.00001  -0.00061
   3        2PX         0.02400   0.00038   0.01165   0.03185  -0.00700
   4        2PY         0.02186   0.00975  -0.05238  -0.00100  -0.03531
   5        2PZ        -0.02099  -0.06381  -0.01232   0.01998  -0.00814
   6        3S          0.01203  -0.00442   0.02143   0.02661  -0.00110
   7        3PX         0.09114  -0.05231   0.05972  -0.02567  -0.00876
   8        3PY        -0.04729  -0.00080   0.05665  -0.05562   0.08398
   9        3PZ         0.02145   0.06126   0.02512  -0.03231   0.01461
  10        4XX        -0.02215   0.01371  -0.01333   0.01212   0.00562
  11        4YY         0.00440  -0.02699  -0.01527   0.00008  -0.01503
  12        4ZZ         0.00961   0.01795   0.02423  -0.00843   0.01113
  13        4XY         0.00681  -0.00472  -0.01126  -0.00500   0.02066
  14        4XZ        -0.00612  -0.00929  -0.00656  -0.00559   0.00417
  15        4YZ         0.01981   0.02276  -0.02253  -0.00578  -0.01124
  16 2   F  1S          0.00008   0.00427   0.00034   0.00049  -0.00027
  17        2S         -0.00581  -0.00663  -0.00584   0.00601   0.00302
  18        2PX         0.27839   0.15920   0.26755  -0.05879  -0.14349
  19        2PY        -0.19462  -0.08431   0.30597   0.01819   0.27764
  20        2PZ         0.02225   0.10084  -0.05998  -0.08940   0.10088
  21        3S          0.02783  -0.00946   0.02497  -0.03380   0.00517
  22        3PX         0.18800   0.11793   0.18389  -0.04196  -0.09482
  23        3PY        -0.12962  -0.06042   0.21163   0.01811   0.17792
  24        3PZ         0.02544   0.06372  -0.03433  -0.06939   0.06953
  25        4XX         0.00289   0.00698   0.00321   0.00421  -0.00288
  26        4YY        -0.00645  -0.00450  -0.00064   0.00505   0.00069
  27        4ZZ        -0.00092   0.00268  -0.00695  -0.00166   0.00552
  28        4XY        -0.00028  -0.00068   0.00472  -0.00118   0.00431
  29        4XZ         0.01082   0.00694   0.00949  -0.00268  -0.00372
  30        4YZ        -0.00646  -0.00243   0.01144   0.00205   0.00715
  31 3   F  1S         -0.00091   0.00032  -0.00270  -0.00073   0.00341
  32        2S         -0.00563   0.00301   0.00497  -0.00794  -0.00882
  33        2PX         0.29253  -0.21778  -0.18026  -0.14316   0.32628
  34        2PY        -0.07271  -0.11868   0.08526  -0.01203   0.30005
  35        2PZ         0.20952   0.35657  -0.01987  -0.11441   0.10040
  36        3S          0.04104  -0.02060  -0.00144   0.02960  -0.03930
  37        3PX         0.19494  -0.14737  -0.13397  -0.09379   0.21507
  38        3PY        -0.06156  -0.07565   0.05495  -0.01333   0.20721
  39        3PZ         0.13964   0.24545  -0.01662  -0.07751   0.07092
  40        4XX         0.00034  -0.00149  -0.00612  -0.00605   0.00913
  41        4YY         0.00129   0.00923  -0.00109  -0.00345  -0.01276
  42        4ZZ        -0.00871  -0.00432   0.00487  -0.00221   0.00159
  43        4XY        -0.01120   0.00667   0.00748   0.00391  -0.00608
  44        4XZ        -0.00142   0.00568   0.00141  -0.00001  -0.00217
  45        4YZ        -0.00621  -0.01158  -0.00011   0.00358  -0.00657
  46 4   F  1S         -0.00305  -0.00264   0.00130   0.00165  -0.00073
  47        2S          0.00206   0.01082  -0.00637   0.01055   0.00317
  48        2PX         0.03306  -0.32011   0.29734  -0.05057  -0.17551
  49        2PY        -0.04924   0.15589   0.17687   0.01807   0.32486
  50        2PZ         0.03960   0.19355   0.24496  -0.04101   0.02690
  51        3S          0.02231  -0.02166   0.01846  -0.04226   0.01451
  52        3PX         0.01488  -0.22348   0.20570  -0.03820  -0.11495
  53        3PY        -0.02386   0.10308   0.12471   0.01028   0.21559
  54        3PZ         0.02189   0.13643   0.16429  -0.01411   0.01155
  55        4XX        -0.00370  -0.00737   0.00730   0.00503  -0.00585
  56        4YY        -0.00089   0.01292   0.00452   0.00749   0.00916
  57        4ZZ        -0.00103  -0.00233  -0.01392   0.00467  -0.00060
  58        4XY         0.00099  -0.00577   0.01019  -0.00144   0.00252
  59        4XZ        -0.00081   0.01007  -0.00308   0.00064   0.00490
  60        4YZ         0.00186   0.00223   0.00159  -0.00063  -0.00628
  61 5   S  1S         -0.00294   0.00360  -0.00300   0.00509   0.00119
  62        2S          0.01053  -0.01531   0.01272  -0.02130  -0.00530
  63        2PX        -0.09758   0.04961  -0.04929   0.03685   0.00604
  64        2PY         0.04280  -0.02315  -0.02645  -0.00686   0.01974
  65        2PZ         0.04785  -0.01724  -0.00896   0.09962   0.01781
  66        3S         -0.03810   0.04108  -0.03517   0.05932   0.01382
  67        3PX         0.26826  -0.13755   0.13595  -0.10530  -0.01822
  68        3PY        -0.11863   0.06401   0.06901   0.01602  -0.05722
  69        3PZ        -0.13142   0.04450   0.02384  -0.27288  -0.04939
  70        4S         -0.02615   0.02457  -0.02684   0.01295   0.00959
  71        4PX         0.09501  -0.04278   0.04521  -0.00903  -0.00437
  72        4PY         0.02666   0.01871  -0.05644   0.08714   0.07240
  73        4PZ        -0.02917  -0.05781  -0.01991  -0.00429   0.02946
  74        5XX         0.02230  -0.00886   0.01720   0.01206  -0.00466
  75        5YY        -0.00948   0.00407  -0.01112   0.03592   0.01133
  76        5ZZ        -0.02011   0.00682  -0.00559  -0.04481  -0.00867
  77        5XY        -0.00947   0.00644   0.00989   0.02554  -0.01854
  78        5XZ        -0.00235   0.01205   0.00193  -0.01031  -0.00782
  79        5YZ         0.00932   0.01036  -0.00492   0.05219   0.00967
  80 6   O  1S         -0.01185   0.00724   0.01150  -0.03354  -0.00699
  81        2S          0.02381  -0.02802  -0.03044   0.06724   0.02047
  82        2PX         0.16377  -0.07911   0.04398   0.10727   0.00225
  83        2PY        -0.00777   0.02928   0.00186   0.23479   0.02448
  84        2PZ         0.00852  -0.02387  -0.07801   0.13281   0.05930
  85        3S          0.04802   0.01415  -0.02873   0.14630   0.00434
  86        3PX         0.09212  -0.05125   0.02692   0.06454   0.00007
  87        3PY        -0.00917   0.01313   0.01159   0.14520   0.00641
  88        3PZ         0.00097  -0.01685  -0.04564   0.05013   0.03762
  89        4XX        -0.00839  -0.00082  -0.00465  -0.00539   0.00282
  90        4YY        -0.00015  -0.00560  -0.00311  -0.00631   0.00259
  91        4ZZ         0.00226  -0.00566   0.00556  -0.00622  -0.00197
  92        4XY        -0.00217   0.00054  -0.00129  -0.00570  -0.00068
  93        4XZ        -0.01132   0.00600  -0.00257  -0.00711  -0.00035
  94        4YZ         0.00252  -0.00260  -0.00114  -0.01553  -0.00042
  95 7   O  1S          0.03922  -0.01501  -0.00920   0.01988   0.00905
  96        2S         -0.08436   0.03214   0.03291  -0.04985  -0.02744
  97        2PX         0.06213  -0.05044   0.09960  -0.15330  -0.01661
  98        2PY         0.20643  -0.07872  -0.02255   0.15455   0.08060
  99        2PZ         0.06974  -0.04663  -0.02008  -0.06554   0.04210
 100        3S         -0.16977   0.06305  -0.00806  -0.04696  -0.00108
 101        3PX         0.03729  -0.03479   0.06159  -0.10168  -0.00769
 102        3PY         0.09536  -0.04165  -0.01283   0.07970   0.04506
 103        3PZ         0.03070  -0.01329  -0.01578  -0.04438   0.02691
 104        4XX        -0.00359   0.00283   0.00078   0.00379  -0.00411
 105        4YY         0.01469  -0.00717   0.00646   0.00604   0.00054
 106        4ZZ         0.00118  -0.00129   0.00447  -0.01244  -0.00260
 107        4XY         0.00281  -0.00313   0.00704  -0.01124  -0.00174
 108        4XZ         0.00324  -0.00133   0.00415  -0.00134  -0.00088
 109        4YZ         0.00678  -0.00276   0.00009  -0.00371   0.00257
 110 8   O  1S          0.01533   0.00568   0.01272   0.05949   0.00300
 111        2S         -0.02769  -0.00338  -0.03345  -0.12795  -0.00452
 112        2PX         0.14677  -0.02016   0.05683   0.14152  -0.02116
 113        2PY        -0.02634   0.05455  -0.02885   0.10217   0.04539
 114        2PZ         0.02892   0.03184   0.06474   0.29655   0.00141
 115        3S         -0.08969  -0.05146  -0.03343  -0.26385  -0.02718
 116        3PX         0.09689  -0.00738   0.03348   0.09990  -0.01649
 117        3PY        -0.00968   0.04193  -0.02134   0.06839   0.03221
 118        3PZ         0.01130   0.02092   0.04471   0.19082  -0.00726
 119        4XX         0.00267   0.00361  -0.00237   0.00144   0.00172
 120        4YY         0.00432   0.00151  -0.00299  -0.00088   0.00085
 121        4ZZ         0.00394   0.00759   0.00400   0.02568  -0.00007
 122        4XY        -0.00354   0.00221  -0.00204   0.00083   0.00058
 123        4XZ         0.01010  -0.00084   0.00446   0.01080  -0.00160
 124        4YZ        -0.00075   0.00281  -0.00237   0.00600   0.00305
 125 9   H  1S          0.03967   0.02200   0.01731   0.14945   0.01183
 126        2S          0.02360   0.01142   0.02217   0.11425   0.00338
                          31        32        33        34        35
                           O         O         O         O         O
     Eigenvalues --    -0.45398  -0.43635  -0.40229  -0.38071  -0.36923
   1 1   C  1S          0.00033  -0.00017  -0.00651  -0.03892  -0.01371
   2        2S          0.00011   0.00077   0.01374   0.06763   0.02805
   3        2PX        -0.00521   0.00168   0.03641   0.20488   0.07474
   4        2PY        -0.01004  -0.00154  -0.00265  -0.01764  -0.00581
   5        2PZ         0.03470   0.00463   0.00217   0.00737   0.00358
   6        3S         -0.00494  -0.00041   0.03718   0.31463   0.08950
   7        3PX         0.00872   0.00004   0.00419   0.08690   0.02365
   8        3PY         0.03096   0.00539  -0.01918   0.01489   0.04845
   9        3PZ        -0.07609  -0.01672   0.08733   0.00624   0.02465
  10        4XX         0.00123   0.00060   0.00446   0.02270   0.00882
  11        4YY         0.00740   0.00107  -0.00124  -0.01106  -0.00448
  12        4ZZ        -0.00881  -0.00147  -0.00326  -0.01188  -0.00322
  13        4XY         0.00751   0.00068  -0.00203  -0.00390   0.00330
  14        4XZ        -0.02360  -0.00159   0.00291   0.00235   0.00189
  15        4YZ        -0.00744  -0.00236  -0.00112  -0.00015  -0.00012
  16 2   F  1S          0.00169   0.00082  -0.00152   0.00276  -0.00008
  17        2S         -0.00534  -0.00131  -0.01440   0.00211  -0.00308
  18        2PX         0.33974   0.06054  -0.03328  -0.11725  -0.02200
  19        2PY        -0.04796   0.41323   0.02992   0.00965  -0.04161
  20        2PZ        -0.30875  -0.11900  -0.00290  -0.03499  -0.00564
  21        3S         -0.02456  -0.00852   0.05354  -0.04302   0.00858
  22        3PX         0.22499   0.03890  -0.01867  -0.09226  -0.01723
  23        3PY        -0.03927   0.27732   0.02669   0.00249  -0.03410
  24        3PZ        -0.21058  -0.08138   0.00874  -0.03544  -0.00187
  25        4XX         0.00966   0.00204  -0.00758   0.00407  -0.00092
  26        4YY         0.00141   0.00368  -0.00674   0.00330  -0.00187
  27        4ZZ        -0.01384  -0.00521  -0.00730   0.00143  -0.00130
  28        4XY         0.00190   0.00760  -0.00018  -0.00039   0.00025
  29        4XZ         0.00594  -0.00049   0.00012  -0.00235  -0.00007
  30        4YZ        -0.00471   0.01030   0.00196  -0.00081  -0.00270
  31 3   F  1S         -0.00006  -0.00003   0.00083   0.00404   0.00520
  32        2S          0.00168  -0.00006   0.00682   0.00780   0.00104
  33        2PX         0.00622  -0.02656   0.00718  -0.11481  -0.12536
  34        2PY         0.06546  -0.11076   0.02833   0.04272   0.00257
  35        2PZ        -0.24817   0.32933  -0.03271  -0.00957  -0.00021
  36        3S         -0.00242   0.00019  -0.02366  -0.07122  -0.06697
  37        3PX         0.00329  -0.01782  -0.00027  -0.09252  -0.09237
  38        3PY         0.04094  -0.07488   0.02664   0.04581   0.01592
  39        3PZ        -0.15535   0.22220  -0.03197  -0.00066   0.00225
  40        4XX         0.00075  -0.00074   0.00387   0.00794   0.00553
  41        4YY        -0.00149   0.00515   0.00118   0.00459   0.00439
  42        4ZZ         0.00252  -0.00457   0.00616   0.00704   0.00507
  43        4XY         0.00173  -0.00127  -0.00064   0.00198   0.00325
  44        4XZ        -0.00526   0.00590   0.00078   0.00082   0.00079
  45        4YZ         0.00443  -0.00794   0.00289  -0.00052  -0.00010
  46 4   F  1S         -0.00210  -0.00067   0.00229   0.00355  -0.00007
  47        2S          0.00375   0.00156   0.01280  -0.00505  -0.00200
  48        2PX        -0.25959  -0.03136  -0.04837  -0.18166  -0.01114
  49        2PY         0.20078  -0.25283  -0.00019   0.00647  -0.03467
  50        2PZ        -0.26401  -0.34894  -0.01082  -0.00586  -0.01446
  51        3S          0.03339   0.00661  -0.06054  -0.03679   0.00449
  52        3PX        -0.17064  -0.01940  -0.04113  -0.13520  -0.00938
  53        3PY         0.14350  -0.16901  -0.01391  -0.00435  -0.02909
  54        3PZ        -0.17854  -0.23498  -0.00468   0.00097  -0.01527
  55        4XX        -0.01059  -0.00095   0.00687   0.00053  -0.00035
  56        4YY         0.00598  -0.00801   0.00570   0.00007  -0.00358
  57        4ZZ         0.00466   0.00926   0.00899   0.00115   0.00088
  58        4XY        -0.00242  -0.00589  -0.00127  -0.00304  -0.00030
  59        4XZ        -0.00035  -0.00676   0.00105   0.00256  -0.00023
  60        4YZ        -0.00976  -0.00252  -0.00060   0.00024   0.00054
  61 5   S  1S          0.00036   0.00016   0.00261   0.00129   0.00155
  62        2S         -0.00194  -0.00078  -0.01016  -0.00073  -0.00569
  63        2PX        -0.00744   0.00079   0.01237   0.03843  -0.00282
  64        2PY         0.00155  -0.00026  -0.01115  -0.00525  -0.01062
  65        2PZ        -0.02292   0.00013  -0.01085   0.00552   0.00915
  66        3S          0.00399   0.00167   0.03383   0.02263   0.02213
  67        3PX         0.02021  -0.00228  -0.03522  -0.12219   0.00288
  68        3PY        -0.00485   0.00020   0.02941   0.01621   0.02935
  69        3PZ         0.06565  -0.00030   0.03151  -0.01734  -0.02648
  70        4S          0.00046   0.00415   0.00162   0.00154   0.00585
  71        4PX         0.00332  -0.00122   0.00901   0.16406   0.03111
  72        4PY        -0.00170   0.00174   0.01597  -0.10018   0.10790
  73        4PZ        -0.06486  -0.00402  -0.13722   0.05481   0.00731
  74        5XX        -0.00179   0.00071   0.01503   0.10777   0.03359
  75        5YY        -0.00666   0.00145  -0.09465  -0.04372  -0.02500
  76        5ZZ         0.00578  -0.00220   0.08170  -0.04254  -0.00874
  77        5XY        -0.00552   0.00000   0.01864  -0.01791  -0.10246
  78        5XZ         0.02112   0.00113  -0.03365  -0.02469  -0.04328
  79        5YZ        -0.00103   0.00181   0.07693  -0.09730   0.03165
  80 6   O  1S          0.00788  -0.00001   0.00920  -0.00852  -0.00073
  81        2S         -0.02362  -0.00085  -0.02916   0.02052   0.00474
  82        2PX        -0.00150   0.00264  -0.19478   0.15389  -0.11723
  83        2PY        -0.04654   0.00844   0.02690  -0.18858   0.08714
  84        2PZ        -0.07020  -0.00381  -0.10331   0.20605   0.08563
  85        3S         -0.00231   0.00240   0.01865   0.00222  -0.01931
  86        3PX        -0.00010   0.00159  -0.14633   0.08679  -0.09105
  87        3PY        -0.03537   0.00765   0.01347  -0.12594   0.04323
  88        3PZ        -0.04049  -0.00364  -0.05419   0.13266   0.06525
  89        4XX        -0.00395  -0.00048   0.00426   0.00223   0.00923
  90        4YY        -0.00164  -0.00061  -0.00971   0.00873   0.00002
  91        4ZZ         0.00098   0.00013  -0.00520  -0.00784  -0.00364
  92        4XY         0.00071  -0.00057   0.00229   0.00447  -0.00230
  93        4XZ         0.00082   0.00007   0.00974  -0.00872   0.00768
  94        4YZ         0.00354  -0.00053  -0.00237   0.01066  -0.00365
  95 7   O  1S         -0.00167   0.00015  -0.00027  -0.00495  -0.00075
  96        2S          0.00667   0.00119   0.00483   0.01700   0.00233
  97        2PX         0.01049  -0.00128   0.01957   0.28398   0.42910
  98        2PY        -0.02821  -0.00054   0.15247  -0.15217   0.28423
  99        2PZ         0.01094   0.00382  -0.35172   0.08324  -0.00793
 100        3S         -0.00858  -0.00414  -0.02079  -0.02628   0.02769
 101        3PX         0.00531   0.00078   0.01708   0.18144   0.30633
 102        3PY        -0.02215  -0.00260   0.10563  -0.09052   0.18732
 103        3PZ         0.01673   0.00488  -0.23563   0.05107  -0.00589
 104        4XX         0.00100   0.00045   0.00142  -0.00212  -0.02038
 105        4YY        -0.00160   0.00025   0.01802  -0.00023   0.02083
 106        4ZZ         0.00341   0.00087  -0.01602   0.01185  -0.00452
 107        4XY         0.00062   0.00021  -0.00158   0.01512   0.02098
 108        4XZ         0.00048  -0.00031   0.00775   0.00354   0.01616
 109        4YZ         0.00152   0.00018  -0.01583   0.00407   0.00529
 110 8   O  1S         -0.00356   0.00138  -0.00001   0.00803   0.00641
 111        2S          0.01174  -0.00215   0.00945  -0.02089  -0.01181
 112        2PX        -0.03452   0.00280   0.35188   0.25811  -0.20479
 113        2PY         0.03841   0.00683  -0.07486  -0.17366   0.24853
 114        2PZ        -0.04145   0.00310  -0.23982   0.06752  -0.04360
 115        3S         -0.00568  -0.00926  -0.05792  -0.00376  -0.06436
 116        3PX        -0.02766   0.00175   0.26681   0.17292  -0.14982
 117        3PY         0.03637   0.00281  -0.05054  -0.12776   0.18131
 118        3PZ        -0.02670  -0.00110  -0.17869   0.04367  -0.04943
 119        4XX         0.00289   0.00050   0.00669   0.00244   0.00335
 120        4YY        -0.00006   0.00014   0.01333   0.00046   0.00170
 121        4ZZ        -0.00086   0.00066  -0.01241  -0.00168  -0.00188
 122        4XY         0.00088   0.00038  -0.00473  -0.00279   0.00276
 123        4XZ        -0.00172   0.00065   0.01717   0.01217  -0.01153
 124        4YZ         0.00209   0.00031   0.00061  -0.00814   0.01300
 125 9   H  1S         -0.00623   0.00513   0.02022   0.02761   0.02199
 126        2S         -0.00516   0.00390   0.01690   0.00975   0.00762
                          36        37        38        39        40
                           O         O         V         V         V
     Eigenvalues --    -0.36063  -0.34255  -0.03763  -0.01873   0.01691
   1 1   C  1S         -0.02888  -0.01020   0.04519   0.08689   0.06411
   2        2S          0.05155   0.01980  -0.10640  -0.19723  -0.15114
   3        2PX         0.14506   0.04909  -0.13853  -0.30778  -0.14607
   4        2PY        -0.01460  -0.00513   0.10275  -0.12485   0.29892
   5        2PZ         0.00439   0.00373  -0.15024   0.11270   0.17109
   6        3S          0.22236   0.07036  -0.30773  -0.64210  -0.42740
   7        3PX         0.06314   0.01860  -0.09214  -0.29681  -0.09641
   8        3PY        -0.01781  -0.03063   0.22086  -0.18510   0.36644
   9        3PZ        -0.04130   0.01332  -0.21950   0.16657   0.21955
  10        4XX         0.01457   0.00404   0.00696   0.00229   0.01491
  11        4YY        -0.00691  -0.00291   0.00403   0.00977  -0.01597
  12        4ZZ        -0.00816  -0.00175  -0.00223   0.00693   0.01622
  13        4XY        -0.00342  -0.00039   0.01212  -0.02439   0.03334
  14        4XZ        -0.00320   0.00305  -0.02346   0.01814   0.02142
  15        4YZ         0.00029  -0.00032  -0.00232   0.00541  -0.00628
  16 2   F  1S          0.00584   0.00017   0.01011  -0.01891  -0.03357
  17        2S          0.00098   0.00376  -0.01663   0.03109   0.06508
  18        2PX        -0.15251   0.00133  -0.04138   0.12471   0.15178
  19        2PY         0.00763  -0.00585  -0.04747   0.06368  -0.06047
  20        2PZ        -0.01147  -0.00698  -0.01556   0.07424   0.14772
  21        3S         -0.07584  -0.00902  -0.09263   0.16636   0.27927
  22        3PX        -0.11673  -0.00281  -0.03459   0.12382   0.13627
[...]
 106        4ZZ         0.00211
 107        4XY        -0.00000   0.00246
 108        4XZ         0.00000   0.00000   0.00109
 109        4YZ         0.00000  -0.00000   0.00000   0.00195
 110 8   O  1S         -0.00000  -0.00000  -0.00000   0.00000   2.07749
 111        2S          0.00000  -0.00000   0.00000  -0.00000  -0.04278
 112        2PX        -0.00000   0.00000   0.00000  -0.00000   0.00000
 113        2PY         0.00000   0.00000   0.00000   0.00000   0.00000
 114        2PZ         0.00000  -0.00000  -0.00000   0.00000   0.00000
 115        3S          0.00012  -0.00000   0.00000  -0.00003  -0.04231
 116        3PX         0.00000   0.00000   0.00001  -0.00000   0.00000
 117        3PY         0.00019   0.00000   0.00000   0.00000   0.00000
 118        3PZ        -0.00000  -0.00000  -0.00000   0.00001   0.00000
 119        4XX        -0.00000  -0.00000   0.00000   0.00000  -0.00048
 120        4YY        -0.00000  -0.00000  -0.00000   0.00000  -0.00064
 121        4ZZ        -0.00000  -0.00000   0.00000  -0.00000  -0.00042
 122        4XY        -0.00000   0.00000  -0.00000  -0.00000   0.00000
 123        4XZ        -0.00000  -0.00000  -0.00000   0.00000   0.00000
 124        4YZ        -0.00000  -0.00000  -0.00000   0.00000   0.00000
 125 9   H  1S         -0.00000  -0.00000   0.00000  -0.00000  -0.00042
 126        2S         -0.00001  -0.00001   0.00000  -0.00000   0.00045
                         111       112       113       114       115
 111        2S          0.51924
 112        2PX         0.00000   0.71111
 113        2PY         0.00000   0.00000   0.60462
 114        2PZ         0.00000   0.00000   0.00000   0.67347
 115        3S          0.46231   0.00000   0.00000   0.00000   0.78815
 116        3PX         0.00000   0.25134   0.00000   0.00000   0.00000
 117        3PY         0.00000   0.00000   0.19517   0.00000   0.00000
 118        3PZ         0.00000   0.00000   0.00000   0.22816   0.00000
 119        4XX        -0.00166   0.00000   0.00000   0.00000  -0.00416
 120        4YY         0.00386   0.00000   0.00000   0.00000   0.00370
 121        4ZZ        -0.00456   0.00000   0.00000   0.00000  -0.01215
 122        4XY        -0.00000   0.00000   0.00000   0.00000  -0.00000
 123        4XZ        -0.00000   0.00000   0.00000   0.00000   0.00000
 124        4YZ        -0.00000   0.00000   0.00000   0.00000  -0.00000
 125 9   H  1S          0.00849   0.01628   0.02344   0.01739   0.00648
 126        2S         -0.00669   0.00695   0.01026   0.00680  -0.03298
                         116       117       118       119       120
 116        3PX         0.35669
 117        3PY         0.00000   0.25706
 118        3PZ         0.00000   0.00000   0.31107
 119        4XX         0.00000   0.00000   0.00000   0.00054
 120        4YY         0.00000   0.00000   0.00000   0.00011   0.00081
 121        4ZZ         0.00000   0.00000   0.00000  -0.00008  -0.00013
 122        4XY         0.00000   0.00000   0.00000   0.00000  -0.00000
 123        4XZ         0.00000   0.00000   0.00000  -0.00000  -0.00000
 124        4YZ         0.00000   0.00000   0.00000   0.00000  -0.00000
 125 9   H  1S          0.02756   0.03731   0.03260   0.00003  -0.00027
 126        2S          0.01492   0.02105   0.01578   0.00029  -0.00038
                         121       122       123       124       125
 121        4ZZ         0.00327
 122        4XY        -0.00000   0.00068
 123        4XZ        -0.00000  -0.00000   0.00229
 124        4YZ         0.00000  -0.00000  -0.00000   0.00210
 125 9   H  1S          0.00254   0.00093   0.00193   0.00216   0.16230
 126        2S          0.00275   0.00007   0.00027   0.00032   0.05655
                         126
 126        2S          0.05384
     Gross orbital populations:
                           1
   1 1   C  1S          1.99219
   2        2S          0.71819
   3        2PX         0.66761
   4        2PY         0.54491
   5        2PZ         0.54135
   6        3S          0.36161
   7        3PX         0.18714
   8        3PY         0.12305
   9        3PZ         0.13019
  10        4XX         0.01547
  11        4YY         0.00799
  12        4ZZ         0.00618
  13        4XY         0.02283
  14        4XZ         0.02218
  15        4YZ         0.03232
  16 2   F  1S          1.99332
  17        2S          0.95558
  18        2PX         1.13663
  19        2PY         1.18600
  20        2PZ         0.96730
  21        3S          0.97484
  22        3PX         0.69316
  23        3PY         0.71029
  24        3PZ         0.56570
  25        4XX         0.01081
  26        4YY         0.00694
  27        4ZZ         0.02936
  28        4XY         0.00080
  29        4XZ         0.00508
  30        4YZ         0.00326
  31 3   F  1S          1.99331
  32        2S          0.95560
  33        2PX         1.14908
  34        2PY         0.97570
  35        2PZ         1.17058
  36        3S          0.97044
  37        3PX         0.69754
  38        3PY         0.56444
  39        3PZ         0.69646
  40        4XX         0.01014
  41        4YY         0.02875
  42        4ZZ         0.00857
  43        4XY         0.00472
  44        4XZ         0.00101
  45        4YZ         0.00414
  46 4   F  1S          1.99332
  47        2S          0.95575
  48        2PX         1.10747
  49        2PY         1.07893
  50        2PZ         1.10286
  51        3S          0.97536
  52        3PX         0.67694
  53        3PY         0.64085
  54        3PZ         0.65588
  55        4XX         0.01320
  56        4YY         0.01695
  57        4ZZ         0.01450
  58        4XY         0.00363
  59        4XZ         0.00311
  60        4YZ         0.00462
  61 5   S  1S          1.99861
  62        2S          1.98808
  63        2PX         1.98870
  64        2PY         1.98857
  65        2PZ         1.98869
  66        3S          1.34640
  67        3PX         0.90922
  68        3PY         0.83942
  69        3PZ         0.84678
  70        4S         -0.05449
  71        4PX         0.16729
  72        4PY         0.14788
  73        4PZ         0.12590
  74        5XX         0.07480
  75        5YY         0.06692
  76        5ZZ         0.06511
  77        5XY         0.08820
  78        5XZ         0.09391
  79        5YZ         0.16707
  80 6   O  1S          1.99267
  81        2S          0.92991
  82        2PX         0.95863
  83        2PY         1.00247
  84        2PZ         0.88749
  85        3S          1.00199
  86        3PX         0.61973
  87        3PY         0.64190
  88        3PZ         0.43759
  89        4XX        -0.00606
  90        4YY        -0.00868
  91        4ZZ         0.01039
  92        4XY         0.00217
  93        4XZ         0.00891
  94        4YZ         0.00789
  95 7   O  1S          1.99262
  96        2S          0.93668
  97        2PX         0.97578
  98        2PY         0.91217
  99        2PZ         0.97498
 100        3S          0.96323
 101        3PX         0.61359
 102        3PY         0.43880
 103        3PZ         0.57789
 104        4XX        -0.00475
 105        4YY         0.01024
 106        4ZZ        -0.00287
 107        4XY         0.00849
 108        4XZ         0.00357
 109        4YZ         0.00870
 110 8   O  1S          1.99261
 111        2S          0.91755
 112        2PX         1.00509
 113        2PY         0.87931
 114        2PZ         0.96252
 115        3S          1.00626
 116        3PX         0.68367
 117        3PY         0.54098
 118        3PZ         0.61562
 119        4XX        -0.00391
 120        4YY         0.01128
 121        4ZZ        -0.00168
 122        4XY         0.00237
 123        4XZ         0.00613
 124        4YZ         0.00978
 125 9   H  1S          0.39491
 126        2S          0.15821
          Condensed to atoms (all electrons):
               1          2          3          4          5          6
     1  C    4.740676   0.208794   0.209467   0.221229   0.085564  -0.031185
     2  F    0.208794   9.087210  -0.032479  -0.033914   0.009703   0.000210
     3  F    0.209467  -0.032479   9.075786  -0.033016   0.011362  -0.000414
     4  F    0.221229  -0.033914  -0.033016   9.083100   0.005696  -0.000015
     5  S    0.085564   0.009703   0.011362   0.005696  13.645430   0.437111
     6  O   -0.031185   0.000210  -0.000414  -0.000015   0.437111   8.176252
     7  O   -0.038318  -0.000201   0.000228   0.000090   0.478760  -0.044797
     8  O   -0.024094  -0.000244  -0.000194   0.000205   0.162376  -0.054806
     9  H    0.001058  -0.000001  -0.000263  -0.000005   0.001052   0.004653
               7          8          9
     1  C   -0.038318  -0.024094   0.001058
     2  F   -0.000201  -0.000244  -0.000001
     3  F    0.000228  -0.000194  -0.000263
     4  F    0.000090   0.000205  -0.000005
     5  S    0.478760   0.162376   0.001052
     6  O   -0.044797  -0.054806   0.004653
     7  O    8.063467  -0.051163   0.001054
     8  O   -0.051163   8.379181   0.216322
     9  H    0.001054   0.216322   0.329251
 Mulliken charges:
               1
     1  C    0.626809
     2  F   -0.239078
     3  F   -0.230476
     4  F   -0.243370
     5  S    1.162947
     6  O   -0.487008
     7  O   -0.409120
     8  O   -0.627583
     9  H    0.446880
 Sum of Mulliken charges =  -0.00000
 Mulliken charges with hydrogens summed into heavy atoms:
               1
     1  C    0.626809
     2  F   -0.239078
     3  F   -0.230476
     4  F   -0.243370
     5  S    1.162947
     6  O   -0.487008
     7  O   -0.409120
     8  O   -0.180704
 Electronic spatial extent (au):  <R**2>=            902.1859
 Charge=             -0.0000 electrons
 Dipole moment (field-independent basis, Debye):
    X=             -0.0428    Y=              2.3160    Z=             -0.0706  Tot=              2.3175
 Quadrupole moment (field-independent basis, Debye-Ang):
   XX=            -47.9487   YY=            -47.0676   ZZ=            -53.7590
   XY=              5.5737   XZ=             -0.7703   YZ=             -0.8244
 Traceless Quadrupole moment (field-independent basis, Debye-Ang):
   XX=              1.6430   YY=              2.5242   ZZ=             -4.1672
   XY=              5.5737   XZ=             -0.7703   YZ=             -0.8244
 Octapole moment (field-independent basis, Debye-Ang**2):
  XXX=            -10.3195  YYY=             13.7952  ZZZ=             -2.6274  XYY=              1.6807
  XXY=             12.8653  XXZ=             -2.0530  XZZ=            -11.7457  YZZ=             -1.2742
  YYZ=              1.4390  XYZ=             -1.6625
 Hexadecapole moment (field-independent basis, Debye-Ang**3):
 XXXX=           -476.4286 YYYY=           -198.4921 ZZZZ=           -212.3752 XXXY=             24.9648
 XXXZ=             -4.0975 YYYX=             26.5589 YYYZ=             -3.0140 ZZZX=             -3.8944
 ZZZY=              1.0659 XXYY=           -101.6754 XXZZ=           -127.1060 YYZZ=            -72.0918
 XXYZ=             -2.8323 YYXZ=              0.6493 ZZXY=             -1.8730
 N-N= 5.542605821626D+02 E-N=-3.387203498431D+03  KE= 9.559071973660D+02
 Orbital energies and kinetic energies (alpha):
                                 1                 2
   1         O               -89.173610        120.981442
   2         O               -24.776507         37.083324
   3         O               -24.768300         37.083637
   4         O               -24.767682         37.083597
   5         O               -19.242793         29.030390
   6         O               -19.201824         29.026899
   7         O               -19.194215         29.028168
   8         O               -10.500157         15.901566
   9         O                -8.199167         18.524168
  10         O                -6.164520         17.520021
  11         O                -6.162551         17.509704
  12         O                -6.162508         17.517254
  13         O                -1.332732          3.281794
  14         O                -1.253045          3.835056
  15         O                -1.244219          3.844581
  16         O                -1.187221          2.698987
  17         O                -1.066806          2.906293
  18         O                -1.046550          2.859314
  19         O                -0.794020          2.557849
  20         O                -0.688072          2.913741
  21         O                -0.622306          2.500955
  22         O                -0.616096          2.782551
  23         O                -0.606292          2.576949
  24         O                -0.553238          2.626342
  25         O                -0.511926          2.597667
  26         O                -0.493897          2.846205
  27         O                -0.491889          3.099810
  28         O                -0.489521          3.073427
  29         O                -0.468114          2.406232
  30         O                -0.458200          3.343519
  31         O                -0.453981          3.355909
  32         O                -0.436348          3.535827
  33         O                -0.402293          2.245548
  34         O                -0.380708          2.453944
  35         O                -0.369226          2.409537
  36         O                -0.360631          2.419594
  37         O                -0.342555          2.491800
  38         V                -0.037629          2.340293
  39         V                -0.018727          3.009043
  40         V                 0.016908          3.045611
  41         V                 0.030154          2.703155
  42         V                 0.092992          3.438548
  43         V                 0.129753          3.255435
  44         V                 0.151158          3.965202
  45         V                 0.188470          3.153397
  46         V                 0.284746          2.106506
  47         V                 0.313181          1.957461
  48         V                 0.341571          2.203878
  49         V                 0.391172          2.729629
  50         V                 0.458869          2.536224
  51         V                 0.489747          2.520733
  52         V                 0.514182          2.408159
  53         V                 0.645975          2.317256
  54         V                 0.676320          2.679067
  55         V                 0.699048          2.651295
  56         V                 0.754557          2.611018
  57         V                 0.782222          2.605209
  58         V                 0.799230          2.799171
  59         V                 0.864278          3.152761
  60         V                 0.877917          2.623182
  61         V                 0.929556          3.046681
  62         V                 0.968562          3.314329
  63         V                 0.985881          3.270552
  64         V                 0.999438          3.628389
  65         V                 1.012315          3.592137
  66         V                 1.021672          3.420932
  67         V                 1.080028          3.526428
  68         V                 1.101252          3.675137
  69         V                 1.105629          3.960955
  70         V                 1.119820          3.656826
  71         V                 1.165716          3.535285
  72         V                 1.179571          4.383006
  73         V                 1.184808          3.581179
  74         V                 1.273263          3.265515
  75         V                 1.290225          4.384481
  76         V                 1.321751          3.724401
  77         V                 1.343454          2.905875
  78         V                 1.345307          2.912138
  79         V                 1.361917          3.452624
  80         V                 1.377018          3.665939
  81         V                 1.517419          3.114910
  82         V                 1.549905          2.962006
  83         V                 1.585984          3.395908
  84         V                 1.600875          3.384833
  85         V                 1.676049          3.083624
  86         V                 1.715004          2.923964
  87         V                 1.739163          3.111390
  88         V                 1.751674          2.952218
  89         V                 1.768524          3.085966
  90         V                 1.776646          2.987304
  91         V                 1.790205          2.875052
  92         V                 1.797793          3.049805
  93         V                 1.816702          3.163204
  94         V                 1.820518          2.988024
  95         V                 1.830057          3.086800
  96         V                 1.868234          3.281011
  97         V                 1.912502          3.246396
  98         V                 1.929629          3.489887
  99         V                 1.950684          3.634854
 100         V                 2.000551          3.650560
 101         V                 2.009304          3.460958
 102         V                 2.023959          3.886816
 103         V                 2.078744          3.723758
 104         V                 2.115408          3.581807
 105         V                 2.149863          3.822093
 106         V                 2.160746          3.820935
 107         V                 2.187880          3.732146
 108         V                 2.206734          3.821098
 109         V                 2.285786          3.856639
 110         V                 2.433509          4.729114
 111         V                 2.620447          4.362740
 112         V                 2.639462          4.095384
 113         V                 2.642427          4.122125
 114         V                 2.734959          4.828603
 115         V                 2.801982          5.122103
 116         V                 2.886949          6.176388
 117         V                 3.006098          5.761141
 118         V                 3.014902          5.779808
 119         V                 3.564838         10.036186
 120         V                 3.828809         10.654003
 121         V                 3.865863         11.543670
 122         V                 3.934900         11.776189
 123         V                 4.282390         11.695250
 124         V                 4.304003         10.235657
 125         V                 4.381132         11.905247
 126         V                 5.069349         13.965337
 Total kinetic energy from orbitals= 9.559071973660D+02
 Unable to Open any file for archive entry.
 1\1\GINC-SPARTAN-BM162\SP\RB3LYP\6-31G(d)\C1H1F3O3S1\AKHALILOV\20-Mar-
 2025\0\\# B3LYP/6-31G(d) pop=full density=current\\PFMS Time step 10\\
 0,1\C,0,-0.920299,0.002428,-0.240691\F,0,-1.064376,0.175184,-1.604194\
 F,0,-1.560948,1.046986,0.356204\F,0,-1.655223,-1.131849,0.065647\S,0,0
 .852287,-0.155707,0.266223\O,0,0.993354,-0.17027,1.717167\O,0,1.559912
 ,-1.08239,-0.545096\O,0,1.406641,1.337563,-0.166719\H,0,1.765597,1.860
 613,0.752792\\Version=ES64L-G16RevC.01\State=1-A\HF=-961.9708864\RMSD=
 6.797e-09\Dipole=-0.1081785,0.8753009,0.2312561\Quadrupole=0.3345639,1
 .9970276,-2.3315916,3.6808119,1.6347792,2.0477314\PG=C01 [X(C1H1F3O3S1
 )]\\@
 The archive entry for this job was punched.


 IT IS A PROFOUNDLY ERRONEOUS TRUISM ... THAT WE SHOULD CULTIVATE
 THE HABIT OF THINKING OF WHAT WE ARE DOING.
 THE PRECISE OPPOSITE IS THE CASE.
 CIVILIZATION ADVANCES BY EXTENDING THE NUMBER OF IMPORTANT OPERATIONS
 WHICH WE CAN PERFORM WITHOUT THINKING ABOUT THEM.

                                    -- ALFRED NORTH WHITEHEAD
 Job cpu time:       0 days  0 hours  0 minutes  9.8 seconds.
 Elapsed time:       0 days  0 hours  0 minutes  3.0 seconds.
 File lengths (MBytes):  RWF=     10 Int=      0 D2E=      0 Chk=      2 Scr=      1
 Normal termination of Gaussian 16 at Thu Mar 20 00:09:01 2025.
