PFMS Time step 45                                                       
SP        RB3LYP                                                      6-31G(d)            
Number of atoms                            I                9
Info1-9                                    I   N=           9
          18          18           0           0           0         110
           1          18        -502
Full Title                                 C   N=           2
PFMS Time step 45       
Route                                      C   N=           4
# B3LYP/6-31G(d) pop=full density=current       
Charge                                     I                0
Multiplicity                               I                1
Number of electrons                        I               74
Number of alpha electrons                  I               37
Number of beta electrons                   I               37
Number of basis functions                  I              126
Number of independent functions            I              126
Number of point charges in /Mol/           I                0
Number of translation vectors              I                0
Atomic numbers                             I   N=           9
           6           9           9           9          16           8
           8           8           1
Nuclear charges                            R   N=           9
  6.00000000E+00  9.00000000E+00  9.00000000E+00  9.00000000E+00  1.60000000E+01
  8.00000000E+00  8.00000000E+00  8.00000000E+00  1.00000000E+00
Current cartesian coordinates              R   N=          27
  1.86038875E+00  1.27371769E-01 -8.27347767E-02  2.82499334E+00  4.10369783E-01
  2.41000689E+00  2.69921662E+00  2.08712002E+00 -1.47278742E+00  3.21306913E+00
 -2.05568617E+00 -9.72630501E-01 -1.59765744E+00 -4.44118412E-01 -4.89725340E-02
 -2.67353165E+00 -5.05018821E-01 -2.60837752E+00 -2.30386284E+00 -2.08799036E+00
  1.77883730E+00 -2.58567242E+00  2.45245207E+00  1.09397505E+00 -3.73079011E+00
  3.48988816E+00 -5.16810175E-01
Number of symbols in /Mol/                 I                0
Int Atom Types                             I   N=           9
           0           0           0           0           0           0
           0           0           0
Force Field                                I                0
Atom Types                                 C   N=           9
                                                            
                                                
MM charges                                 R   N=           9
  0.00000000E+00  0.00000000E+00  0.00000000E+00  0.00000000E+00  0.00000000E+00
  0.00000000E+00  0.00000000E+00  0.00000000E+00  0.00000000E+00
Integer atomic weights                     I   N=           9
          12          19          19          19          32          16
          16          16           1
Real atomic weights                        R   N=           9
  1.20000000E+01  1.89984032E+01  1.89984032E+01  1.89984032E+01  3.19720718E+01
  1.59949146E+01  1.59949146E+01  1.59949146E+01  1.00782504E+00
Atom fragment info                         I   N=           9
           0           0           0           0           0           0
           0           0           0
Atom residue num                           I   N=           9
           0           0           0           0           0           0
           0           0           0
Nuclear spins                              I   N=           9
           0           1           1           1           0           0
           0           0           1
Nuclear ZEff                               R   N=           9
 -3.60000000E+00 -6.75000000E+00 -6.75000000E+00 -6.75000000E+00 -1.36000000E+01
 -5.60000000E+00 -5.60000000E+00 -5.60000000E+00 -1.00000000E+00
Nuclear ZNuc                               R   N=           9
  6.00000000E+00  9.00000000E+00  9.00000000E+00  9.00000000E+00  1.60000000E+01
  8.00000000E+00  8.00000000E+00  8.00000000E+00  1.00000000E+00
Nuclear QMom                               R   N=           9
  0.00000000E+00  0.00000000E+00  0.00000000E+00  0.00000000E+00  0.00000000E+00
  0.00000000E+00  0.00000000E+00  0.00000000E+00  0.00000000E+00
Nuclear GFac                               R   N=           9
  0.00000000E+00  2.62886700E+00  2.62886700E+00  2.62886700E+00  0.00000000E+00
  0.00000000E+00  0.00000000E+00  0.00000000E+00  2.79284600E+00
MicOpt                                     I   N=           9
          -1          -1          -1          -1          -1          -1
          -1          -1          -1
Number of residues                         I                0
Number of secondary structures             I                0
SymInf integers                            I   N=          26
           1           1           1           1           1           0
           0           0           0           0           0           0
           0           0           0           0           0           0
           0           0           0           0           0           0
           0           0
RotTr to input orientation                 R   N=          12
 -9.60396999E-01 -4.68872724E-02 -2.74661951E-01 -4.43234789E-02  9.98896408E-01
 -1.55368874E-02  2.75087319E-01 -2.74760678E-03 -9.61415320E-01  7.83411502E-02
  2.39583564E-02  2.56588290E-02
Number of contracted shells                I               35
Number of primitive shells                 I               98
Pure/Cartesian d shells                    I                1
Pure/Cartesian f shells                    I                0
Highest angular momentum                   I                2
Largest degree of contraction              I                6
Shell types                                I   N=          35
           0          -1          -1           2           0          -1
          -1           2           0          -1          -1           2
           0          -1          -1           2           0          -1
          -1          -1           2           0          -1          -1
           2           0          -1          -1           2           0
          -1          -1           2           0           0
Number of primitives per shell             I   N=          35
           6           3           1           1           6           3
           1           1           6           3           1           1
           6           3           1           1           6           6
           3           1           1           6           3           1
           1           6           3           1           1           6
           3           1           1           3           1
Shell to atom map                          I   N=          35
           1           1           1           1           2           2
           2           2           3           3           3           3
           4           4           4           4           5           5
           5           5           5           6           6           6
           6           7           7           7           7           8
           8           8           8           9           9
Primitive exponents                        R   N=          98
  3.04752488E+03  4.57369518E+02  1.03948685E+02  2.92101553E+01  9.28666296E+00
  3.16392696E+00  7.86827235E+00  1.88128854E+00  5.44249258E-01  1.68714478E-01
  8.00000000E-01  7.00171309E+03  1.05136609E+03  2.39285690E+02  6.73974453E+01
  2.15199573E+01  7.40310130E+00  2.08479528E+01  4.80830834E+00  1.34406986E+00
  3.58151393E-01  8.00000000E-01  7.00171309E+03  1.05136609E+03  2.39285690E+02
  6.73974453E+01  2.15199573E+01  7.40310130E+00  2.08479528E+01  4.80830834E+00
  1.34406986E+00  3.58151393E-01  8.00000000E-01  7.00171309E+03  1.05136609E+03
  2.39285690E+02  6.73974453E+01  2.15199573E+01  7.40310130E+00  2.08479528E+01
  4.80830834E+00  1.34406986E+00  3.58151393E-01  8.00000000E-01  2.19171000E+04
  3.30149000E+03  7.54146000E+02  2.12711000E+02  6.79896000E+01  2.30515000E+01
  4.23735000E+02  1.00710000E+02  3.21599000E+01  1.18079000E+01  4.63110000E+00
  1.87025000E+00  2.61584000E+00  9.22167000E-01  3.41287000E-01  1.17167000E-01
  6.50000000E-01  5.48467166E+03  8.25234946E+02  1.88046958E+02  5.29645000E+01
  1.68975704E+01  5.79963534E+00  1.55396162E+01  3.59993359E+00  1.01376175E+00
  2.70005823E-01  8.00000000E-01  5.48467166E+03  8.25234946E+02  1.88046958E+02
  5.29645000E+01  1.68975704E+01  5.79963534E+00  1.55396162E+01  3.59993359E+00
  1.01376175E+00  2.70005823E-01  8.00000000E-01  5.48467166E+03  8.25234946E+02
  1.88046958E+02  5.29645000E+01  1.68975704E+01  5.79963534E+00  1.55396162E+01
  3.59993359E+00  1.01376175E+00  2.70005823E-01  8.00000000E-01  1.87311370E+01
  2.82539436E+00  6.40121692E-01  1.61277759E-01
Contraction coefficients                   R   N=          98
  1.83473713E-03  1.40373228E-02  6.88426223E-02  2.32184443E-01  4.67941348E-01
  3.62311985E-01 -1.19332420E-01 -1.60854152E-01  1.14345644E+00  1.00000000E+00
  1.00000000E+00  1.81961690E-03  1.39160796E-02  6.84053245E-02  2.33185760E-01
  4.71267439E-01  3.56618546E-01 -1.08506975E-01 -1.46451658E-01  1.12868858E+00
  1.00000000E+00  1.00000000E+00  1.81961690E-03  1.39160796E-02  6.84053245E-02
  2.33185760E-01  4.71267439E-01  3.56618546E-01 -1.08506975E-01 -1.46451658E-01
  1.12868858E+00  1.00000000E+00  1.00000000E+00  1.81961690E-03  1.39160796E-02
  6.84053245E-02  2.33185760E-01  4.71267439E-01  3.56618546E-01 -1.08506975E-01
 -1.46451658E-01  1.12868858E+00  1.00000000E+00  1.00000000E+00  1.86924085E-03
  1.42303065E-02  6.96962317E-02  2.38487108E-01  4.83307220E-01  3.38074154E-01
 -2.37677050E-03 -3.16930067E-02 -1.13317024E-01  5.60900118E-02  5.92255124E-01
  4.55006095E-01 -2.50373114E-01  6.69567631E-02  1.05450627E+00  1.00000000E+00
  1.00000000E+00  1.83107443E-03  1.39501722E-02  6.84450781E-02  2.32714336E-01
  4.70192898E-01  3.58520853E-01 -1.10777550E-01 -1.48026263E-01  1.13076702E+00
  1.00000000E+00  1.00000000E+00  1.83107443E-03  1.39501722E-02  6.84450781E-02
  2.32714336E-01  4.70192898E-01  3.58520853E-01 -1.10777550E-01 -1.48026263E-01
  1.13076702E+00  1.00000000E+00  1.00000000E+00  1.83107443E-03  1.39501722E-02
  6.84450781E-02  2.32714336E-01  4.70192898E-01  3.58520853E-01 -1.10777550E-01
 -1.48026263E-01  1.13076702E+00  1.00000000E+00  1.00000000E+00  3.34946043E-02
  2.34726953E-01  8.13757326E-01  1.00000000E+00
P(S=P) Contraction coefficients            R   N=          98
  0.00000000E+00  0.00000000E+00  0.00000000E+00  0.00000000E+00  0.00000000E+00
  0.00000000E+00  6.89990666E-02  3.16423961E-01  7.44308291E-01  1.00000000E+00
  0.00000000E+00  0.00000000E+00  0.00000000E+00  0.00000000E+00  0.00000000E+00
  0.00000000E+00  0.00000000E+00  7.16287242E-02  3.45912103E-01  7.22469956E-01
  1.00000000E+00  0.00000000E+00  0.00000000E+00  0.00000000E+00  0.00000000E+00
  0.00000000E+00  0.00000000E+00  0.00000000E+00  7.16287242E-02  3.45912103E-01
  7.22469956E-01  1.00000000E+00  0.00000000E+00  0.00000000E+00  0.00000000E+00
  0.00000000E+00  0.00000000E+00  0.00000000E+00  0.00000000E+00  7.16287242E-02
  3.45912103E-01  7.22469956E-01  1.00000000E+00  0.00000000E+00  0.00000000E+00
  0.00000000E+00  0.00000000E+00  0.00000000E+00  0.00000000E+00  0.00000000E+00
  4.06100998E-03  3.06812999E-02  1.30451999E-01  3.27204999E-01  4.52850998E-01
  2.56041999E-01 -1.45104895E-02  3.10262776E-01  7.54482456E-01  1.00000000E+00
  0.00000000E+00  0.00000000E+00  0.00000000E+00  0.00000000E+00  0.00000000E+00
  0.00000000E+00  0.00000000E+00  7.08742682E-02  3.39752839E-01  7.27158577E-01
  1.00000000E+00  0.00000000E+00  0.00000000E+00  0.00000000E+00  0.00000000E+00
  0.00000000E+00  0.00000000E+00  0.00000000E+00  7.08742682E-02  3.39752839E-01
  7.27158577E-01  1.00000000E+00  0.00000000E+00  0.00000000E+00  0.00000000E+00
  0.00000000E+00  0.00000000E+00  0.00000000E+00  0.00000000E+00  7.08742682E-02
  3.39752839E-01  7.27158577E-01  1.00000000E+00  0.00000000E+00  0.00000000E+00
  0.00000000E+00  0.00000000E+00  0.00000000E+00
Coordinates of each shell                  R   N=         105
  1.86038875E+00  1.27371769E-01 -8.27347767E-02  1.86038875E+00  1.27371769E-01
 -8.27347767E-02  1.86038875E+00  1.27371769E-01 -8.27347767E-02  1.86038875E+00
  1.27371769E-01 -8.27347767E-02  2.82499334E+00  4.10369783E-01  2.41000689E+00
  2.82499334E+00  4.10369783E-01  2.41000689E+00  2.82499334E+00  4.10369783E-01
  2.41000689E+00  2.82499334E+00  4.10369783E-01  2.41000689E+00  2.69921662E+00
  2.08712002E+00 -1.47278742E+00  2.69921662E+00  2.08712002E+00 -1.47278742E+00
  2.69921662E+00  2.08712002E+00 -1.47278742E+00  2.69921662E+00  2.08712002E+00
 -1.47278742E+00  3.21306913E+00 -2.05568617E+00 -9.72630501E-01  3.21306913E+00
 -2.05568617E+00 -9.72630501E-01  3.21306913E+00 -2.05568617E+00 -9.72630501E-01
  3.21306913E+00 -2.05568617E+00 -9.72630501E-01 -1.59765744E+00 -4.44118412E-01
 -4.89725340E-02 -1.59765744E+00 -4.44118412E-01 -4.89725340E-02 -1.59765744E+00
 -4.44118412E-01 -4.89725340E-02 -1.59765744E+00 -4.44118412E-01 -4.89725340E-02
 -1.59765744E+00 -4.44118412E-01 -4.89725340E-02 -2.67353165E+00 -5.05018821E-01
 -2.60837752E+00 -2.67353165E+00 -5.05018821E-01 -2.60837752E+00 -2.67353165E+00
 -5.05018821E-01 -2.60837752E+00 -2.67353165E+00 -5.05018821E-01 -2.60837752E+00
 -2.30386284E+00 -2.08799036E+00  1.77883730E+00 -2.30386284E+00 -2.08799036E+00
  1.77883730E+00 -2.30386284E+00 -2.08799036E+00  1.77883730E+00 -2.30386284E+00
 -2.08799036E+00  1.77883730E+00 -2.58567242E+00  2.45245207E+00  1.09397505E+00
 -2.58567242E+00  2.45245207E+00  1.09397505E+00 -2.58567242E+00  2.45245207E+00
  1.09397505E+00 -2.58567242E+00  2.45245207E+00  1.09397505E+00 -3.73079011E+00
  3.48988816E+00 -5.16810175E-01 -3.73079011E+00  3.48988816E+00 -5.16810175E-01
Num ILSW                                   I              100
ILSW                                       I   N=         100
           0           1           0           0           2           0
           0           0           0           0         402          -1
           5           0           0           0           0           0
           0           0           1           0           0           0
           1           0           0           0           0           0
           0           0      100000           0          -1           0
           0           0           0           0           0           0
           0           0           0           1           0           0
           0 -2000000000           1           0           0           0
           0           0           4          52           0           0
           0           0           5           0           0           0
           0           0           0           0           0           1
           0           0           0           0           0           0
           0           0           0           0           0           0
           0           0           0           0           0           0
           0           0           0           0           0           0
           0           0           0           0
Num RLSW                                   I               52
RLSW                                       R   N=          52
  8.00000000E-01  7.20000000E-01  1.00000000E+00  8.10000000E-01  2.00000000E-01
  0.00000000E+00  0.00000000E+00  1.00000000E+00  0.00000000E+00  0.00000000E+00
  0.00000000E+00  0.00000000E+00  1.00000000E+00  0.00000000E+00  0.00000000E+00
  0.00000000E+00  0.00000000E+00  1.00000000E+00  0.00000000E+00  0.00000000E+00
  0.00000000E+00  0.00000000E+00  1.00000000E+00  0.00000000E+00  0.00000000E+00
  0.00000000E+00  0.00000000E+00  1.00000000E+00  0.00000000E+00  0.00000000E+00
  0.00000000E+00  0.00000000E+00  1.00000000E+00  0.00000000E+00  0.00000000E+00
  0.00000000E+00  0.00000000E+00  0.00000000E+00  1.00000000E+00  1.00000000E+00
  0.00000000E+00  1.00000000E+00  0.00000000E+00  0.00000000E+00  0.00000000E+00
  0.00000000E+00  0.00000000E+00  0.00000000E+00  0.00000000E+00  0.00000000E+00
  0.00000000E+00  0.00000000E+00
MxBond                                     I                4
NBond                                      I   N=           9
           4           1           1           1           4           1
           1           1           0
IBond                                      I   N=          36
           2           3           4           5           1           0
           0           0           1           0           0           0
           1           0           0           0           1           6
           7           8           5           0           0           0
           5           0           0           0           5           0
           0           0           0           0           0           0
RBond                                      R   N=          36
  1.00000000E+00  1.00000000E+00  1.00000000E+00  1.00000000E+00  1.00000000E+00
  0.00000000E+00  0.00000000E+00  0.00000000E+00  1.00000000E+00  0.00000000E+00
  0.00000000E+00  0.00000000E+00  1.00000000E+00  0.00000000E+00  0.00000000E+00
  0.00000000E+00  1.00000000E+00  2.00000000E+00  3.00000000E+00  1.00000000E+00
  2.00000000E+00  0.00000000E+00  0.00000000E+00  0.00000000E+00  3.00000000E+00
  0.00000000E+00  0.00000000E+00  0.00000000E+00  1.00000000E+00  0.00000000E+00
  0.00000000E+00  0.00000000E+00  0.00000000E+00  0.00000000E+00  0.00000000E+00
  0.00000000E+00
Virial Ratio                               R      2.006347647370421E+00
SCF Energy                                 R     -9.619329027151655E+02
Total Energy                               R     -9.619329027151655E+02
RMS Density                                R      4.387936435200131E-09
Job Status                                 I                1
Nuclear derivative order                   I                0
External E-field                           R   N=          35
  0.00000000E+00  0.00000000E+00  0.00000000E+00  0.00000000E+00  0.00000000E+00
  0.00000000E+00  0.00000000E+00  0.00000000E+00  0.00000000E+00  0.00000000E+00
  0.00000000E+00  0.00000000E+00  0.00000000E+00  0.00000000E+00  0.00000000E+00
  0.00000000E+00  0.00000000E+00  0.00000000E+00  0.00000000E+00  0.00000000E+00
  0.00000000E+00  0.00000000E+00  0.00000000E+00  0.00000000E+00  0.00000000E+00
  0.00000000E+00  0.00000000E+00  0.00000000E+00  0.00000000E+00  0.00000000E+00
  0.00000000E+00  0.00000000E+00  0.00000000E+00  0.00000000E+00  0.00000000E+00
IOpCl                                      I                0
IROHF                                      I                0
Alpha Orbital Energies                     R   N=         126
 -8.91730562E+01 -2.47904090E+01 -2.47597170E+01 -2.47554376E+01 -1.92329997E+01
 -1.92147891E+01 -1.91985711E+01 -1.05027797E+01 -8.20089220E+00 -6.16561001E+00
 -6.16465888E+00 -6.16394870E+00 -1.32697766E+00 -1.24903730E+00 -1.22159774E+00
 -1.20955428E+00 -1.07691933E+00 -1.01863755E+00 -7.93710826E-01 -6.81938677E-01
 -6.16331661E-01 -6.06137013E-01 -5.93917452E-01 -5.54333940E-01 -5.13754776E-01
 -5.00054471E-01 -4.87775685E-01 -4.79697027E-01 -4.63580584E-01 -4.55602900E-01
 -4.43865288E-01 -4.27718230E-01 -4.06445358E-01 -3.93046453E-01 -3.69895648E-01
 -3.55955093E-01 -3.46171056E-01 -5.13813880E-02 -3.38845716E-02  9.83062708E-04
  1.83677354E-02  8.10373002E-02  1.11557951E-01  1.32386563E-01  1.92976628E-01
  2.84887777E-01  3.11042233E-01  3.37364044E-01  4.04946279E-01  4.56146630E-01
  4.97683846E-01  5.18866710E-01  6.51050076E-01  6.72299815E-01  6.91873629E-01
  7.46666614E-01  7.54507973E-01  7.97054197E-01  8.61168721E-01  8.72247313E-01
  9.27582885E-01  9.65955216E-01  9.70677778E-01  9.97245594E-01  1.01085661E+00
  1.03933737E+00  1.07789225E+00  1.09187060E+00  1.10039672E+00  1.13336875E+00
  1.16872639E+00  1.18396727E+00  1.23794738E+00  1.26914786E+00  1.28707055E+00
  1.32381332E+00  1.34619881E+00  1.35384174E+00  1.35789493E+00  1.38017577E+00
  1.52629851E+00  1.54774697E+00  1.56834544E+00  1.60305619E+00  1.68710163E+00
  1.70801910E+00  1.72918596E+00  1.74723510E+00  1.76509228E+00  1.78136594E+00
  1.78655179E+00  1.79666309E+00  1.81182592E+00  1.82582373E+00  1.82997973E+00
  1.86404998E+00  1.90040596E+00  1.91594281E+00  1.94062574E+00  1.96725036E+00
  1.98934551E+00  2.00914954E+00  2.06688079E+00  2.09638614E+00  2.10383015E+00
  2.14467940E+00  2.16361765E+00  2.18861596E+00  2.29468528E+00  2.35621711E+00
  2.55586215E+00  2.61099942E+00  2.64184765E+00  2.72380151E+00  2.81809771E+00
  2.84981817E+00  2.99933813E+00  3.02686196E+00  3.54368171E+00  3.84800945E+00
  3.85590978E+00  3.94071534E+00  4.21422870E+00  4.27524908E+00  4.34772899E+00
  5.04594355E+00
Alpha MO coefficients                      R   N=       15876
 -2.49571094E-05 -7.06765503E-05 -5.13302390E-05 -5.16645905E-07 -5.43083294E-06
  7.80897541E-04 -3.60482118E-04 -1.37395213E-04  7.00766133E-05 -3.64804775E-05
 -4.72041934E-06 -2.11086692E-06 -1.97395778E-05  5.30330008E-06 -3.02726100E-06
  1.99787517E-05  1.20685124E-04 -1.20030098E-05 -5.31199929E-06  3.56484806E-06
 -4.43120699E-04  1.32262035E-04  4.38688344E-05  6.18833218E-05  6.76837329E-05
  5.74171783E-05  7.73635426E-05 -4.41861340E-06 -2.90461228E-05 -8.43110161E-06
  1.33002492E-05  8.20044896E-05 -1.70769891E-05  2.16428822E-06 -3.39125438E-06
 -2.78805288E-04  1.34634764E-04  3.91913244E-05 -1.45951738E-05  3.66731808E-05
  4.91025117E-05  4.83263206E-05 -2.84078562E-05  2.02295048E-05 -1.18031017E-05
  2.25123284E-05  1.34549845E-04 -1.56509452E-05 -6.16714016E-06  1.73112990E-06
 -4.78918216E-04  1.54933706E-04 -3.11339462E-05 -3.99472041E-05  6.64735294E-05
  9.54172238E-05  7.17034948E-05  2.45385605E-05  1.34564840E-05  3.26395995E-06
  9.96122175E-01  1.48646759E-02  1.33813699E-05  2.01409307E-05  1.17195029E-05
 -2.41255654E-02 -8.21709293E-05 -6.68277994E-05 -2.13686744E-05  1.55736175E-03
  3.72259852E-05 -4.64411010E-05 -7.25734480E-05  8.48288425E-03  8.55142412E-03
  8.62601663E-03  1.64287495E-05  4.64030483E-06 -4.47504621E-05  1.49166185E-05
  5.99910782E-06 -3.49839693E-05 -1.04997161E-06 -1.12055224E-04  3.87911878E-04
  6.94509274E-05  8.60205120E-06  2.89362539E-04  4.02122976E-06  5.57507613E-05
 -1.68808001E-04 -6.51186285E-06 -1.21689165E-04 -8.25041064E-06  1.10095475E-05
 -6.65309338E-05 -4.37476965E-05 -1.32273661E-04  1.47506461E-04  4.93603661E-04
  3.73535076E-05  2.20729949E-04 -2.32131839E-04  3.58496098E-05 -3.46038169E-05
 -5.69341541E-05 -6.01052587E-05  6.31845620E-05  1.30700392E-04 -1.74690940E-05
 -2.68069233E-05  2.80039688E-05 -3.30831589E-05  4.21086472E-06  5.26577013E-04
  1.74914552E-05 -2.43782011E-04 -1.67566486E-04 -5.93858601E-05 -9.69405035E-05
 -4.41188633E-05  1.30025828E-05  2.58514171E-05 -3.57640535E-05 -6.23981851E-05
 -8.67538943E-05 -3.10052481E-05  8.69415550E-05  3.15091368E-04  5.17644823E-04
 -3.49852416E-04  3.82027466E-04 -4.80172539E-04 -2.19150082E-04  6.69835585E-05
  5.50858359E-05  2.91704098E-04  1.52382602E-04  1.46270350E-04 -1.12296680E-04
 -2.27387515E-04  3.88149649E-05  8.17193672E-05 -1.48814738E-06  8.12446935E-06
 -2.42084909E-05 -1.21740818E-04  2.38408605E-05 -5.09432234E-05  1.35612803E-04
  5.94318010E-05  1.41477695E-05 -7.33050479E-05 -1.47191028E-05 -1.83864951E-05
  7.11214667E-05  9.93011480E-01  1.97256961E-02 -2.84580701E-04 -6.03440733E-04
  4.27287132E-04  1.47518661E-02  1.72240896E-04  4.27058309E-04 -2.95983822E-04
 -7.97581359E-03 -8.24159135E-03 -8.09446805E-03 -1.53626464E-04  1.11131556E-04
  2.33494954E-04  3.43346613E-05  1.08350015E-04 -6.69106769E-06  2.35379581E-05
 -2.73323351E-06 -2.19258363E-04  5.45737518E-05 -1.55115292E-04  2.08092419E-05
  6.55847356E-05 -8.12128980E-05  6.52854672E-05  2.95220847E-05  1.50673766E-05
  3.70746169E-05  2.93888642E-06  5.41451561E-05 -6.64376732E-06 -1.28565232E-06
 -6.49395454E-07  2.12033932E-04  8.69438823E-05  3.75896901E-05  2.39511613E-05
 -1.41572015E-03 -4.38189323E-04 -6.36682872E-04  3.49930559E-04  3.38074826E-05
  5.24095434E-05  1.96207886E-05  1.46061576E-05 -8.44259922E-06 -5.66399470E-06
 -4.04470160E-05 -1.78490611E-04 -2.64680529E-05 -2.25130120E-05 -1.12091393E-05
  9.04213129E-04  2.03226416E-04  1.51390670E-04  1.64391936E-04 -1.05690752E-04
 -1.18337976E-04 -1.19367025E-04  1.48745920E-05  2.16776353E-05  2.39673430E-05
  1.05390956E-05  3.48100252E-05 -9.15797902E-06 -1.17515715E-05 -4.30752748E-06
 -1.86229833E-04  4.58676452E-05  6.94709529E-05  1.96168459E-05  3.06972699E-05
  4.42936216E-05  2.71007961E-05  2.32570723E-06  2.42987291E-06  2.56264414E-06
 -2.83783238E-05 -1.38468915E-04 -1.28671897E-05  1.87544064E-05  9.62828530E-06
  6.81840998E-04  1.47111174E-04 -1.73235207E-04 -1.26353879E-04 -7.32981683E-05
 -8.67220826E-05 -6.35904827E-05 -1.67540854E-05 -1.50821859E-05  1.49196107E-05
 -2.43517653E-05  9.81028347E-05 -3.07286712E-05 -1.67500623E-04  2.65461384E-04
  8.51339847E-05  4.67462014E-04  2.40422133E-04 -4.35647597E-04 -1.20832756E-04
  9.50210075E-05  1.32910410E-04  6.05848037E-05  5.75708991E-04  2.48057895E-05
  2.66313434E-04  6.57930758E-05  9.93029721E-01  1.97355724E-02 -2.67443213E-04
 -6.21030646E-05 -6.47082479E-04  1.45966577E-02  1.38872723E-04  4.93485261E-05
  4.47506280E-04 -7.94594644E-03 -7.92952230E-03 -8.29321631E-03 -1.71052658E-05
 -1.84702272E-04 -5.29685052E-05 -3.66108037E-05  4.09062406E-05 -1.37247616E-06
 -9.19266593E-06  2.90980517E-05  6.05067315E-05  9.16666567E-06  1.88457081E-05
 -1.43026293E-04  3.47685409E-05  1.09337739E-05 -1.12373773E-04 -2.72996709E-05
 -1.33951619E-05  5.32749875E-05  1.50906618E-04  6.92812024E-05 -2.21161246E-06
  9.02595811E-06  2.61219869E-05 -6.51466987E-05  1.54093081E-05 -4.17849892E-05
 -1.59588431E-04  4.26561057E-05  1.90444246E-05 -7.95245662E-05  1.78968387E-05
  1.86204667E-06 -8.69385926E-05  2.58949767E-06  4.89476903E-05 -7.31617346E-06
 -9.21152956E-08  3.49291744E-06  1.83439308E-04  9.03287334E-05  3.51575068E-05
 -2.55617265E-05 -1.29848683E-03 -5.11726104E-04 -2.02600297E-04 -8.02186162E-04
  4.05008293E-05  4.65401071E-05  3.77608384E-05  1.37340210E-05  2.30979904E-06
  5.63209300E-06  2.02100624E-05  7.61030720E-05 -9.20295623E-06 -8.83993098E-06
  4.21976934E-06 -4.14284651E-04  2.89087025E-05  4.56698888E-05 -2.30428563E-05
  6.21692114E-05  6.28315688E-05  6.19014327E-05  3.26881239E-06  2.10153770E-07
  6.95110495E-06 -3.87564101E-05 -1.80915654E-04 -1.04854814E-05 -1.90712183E-05
 -8.99419605E-06  9.72547167E-04  1.63589020E-04  2.20777862E-04  4.43746061E-06
 -9.94977522E-05 -8.37249436E-05 -1.33143565E-04  1.54253203E-05 -6.63817264E-06
  8.56146575E-06 -3.39394912E-05 -1.52899315E-04 -1.16484050E-05  2.19164279E-05
 -8.34339546E-06  7.59129867E-04  1.40827507E-04 -2.12110476E-04  3.50775634E-05
 -9.09496966E-05 -8.37503823E-05 -1.09558222E-04 -2.68896530E-05  4.84014587E-07
 -1.73012143E-05 -5.46515761E-06  4.78684417E-06 -2.17159191E-05 -1.79878680E-04
  3.09857459E-04 -3.71299660E-04 -1.70906234E-04  1.46513054E-05 -3.65028240E-04
  2.45310765E-05  4.84268908E-05  2.33092198E-04  4.60417797E-04  1.38581049E-04
 -3.12258464E-04 -1.30964685E-04  1.72324117E-04 -1.48560545E-04  4.61087671E-05
  7.57844627E-06 -1.83985093E-05 -1.77854706E-05 -1.01250971E-05 -3.52484258E-05
  1.10595703E-04  8.65999880E-05  3.52595843E-05 -3.36442513E-05 -4.69170142E-05
  3.02373875E-05  7.84341792E-06 -9.28332251E-05 -2.27355376E-05  6.76179266E-05
  2.72858874E-06 -2.75095179E-05  2.74987010E-06 -4.35747014E-05 -1.11688610E-05
  1.44762383E-04  3.49867440E-06  4.18400239E-05 -1.07096965E-04  4.47938066E-05
  2.44937193E-05  2.78151808E-05  1.04321658E-05  9.93028626E-01  1.97074003E-02
 -3.65317821E-04  5.33961560E-04  2.05994635E-04  1.47140423E-02  1.90070032E-04
 -3.24983564E-04 -1.24379173E-04 -8.01361207E-03 -8.18889141E-03 -7.97174798E-03
  2.03577906E-04  8.06790568E-05 -1.23909739E-04  8.74790093E-07  2.55038871E-05
 -1.04035167E-05 -1.45114795E-06  1.18345423E-06  6.57330111E-05  1.24303717E-04
  2.50286635E-05 -1.73683655E-05 -9.97511415E-04 -4.84437817E-04  2.48444333E-04
  6.87346337E-05  3.07352421E-05  4.94557929E-05  1.70323022E-05  2.83460291E-06
 -7.68654815E-06  2.11905815E-05 -2.48486792E-05 -1.04661596E-04 -3.09036600E-05
  1.41136897E-05 -7.86209811E-06  4.98291845E-04  1.76579792E-04 -7.00946133E-05
  9.96718747E-05 -6.61975080E-05 -7.80797438E-05 -7.40799320E-05 -7.97448743E-06
  2.30800493E-05 -8.84273568E-06 -3.03751643E-05 -1.31744047E-04 -2.94742326E-05
  4.97288363E-06  1.62296598E-05  6.53287934E-04  1.82568714E-04  3.40955090E-05
 -1.50912850E-04 -8.58479145E-05 -9.60488821E-05 -7.90239789E-05  1.18978995E-05
 -2.26450687E-05 -4.03111397E-06  4.93022458E-07  1.32708532E-06 -1.29611970E-05
 -5.05582171E-06 -1.72151484E-06  3.52571348E-07  6.58920009E-05  5.28875910E-07
  2.47279195E-07  5.70225923E-06 -1.16094219E-06  2.58585311E-06 -1.00397670E-05
 -3.51517111E-06 -1.92989485E-06  6.63617072E-06 -1.78309332E-05 -2.47794592E-05
 -1.64094427E-04 -3.89605348E-05  2.74793479E-06 -1.46023798E-05  9.83213587E-04
 -4.71404127E-04 -6.35777686E-04  2.14261334E-04  5.49257868E-05 -1.73812298E-05
 -2.81801695E-05 -4.22634496E-05 -1.07392317E-05  3.17546255E-05 -3.70400289E-05
 -1.92281385E-04  3.76423617E-05 -1.02087724E-05  3.73651037E-06  5.39777744E-04
 -1.22601390E-04  9.85870553E-05 -3.18653499E-06 -1.06900272E-04 -1.87943117E-04
 -1.58017234E-04 -8.52728786E-06 -2.92268458E-06 -2.72903073E-05 -5.19989799E-05
 -2.94693367E-04  1.68871528E-05  9.97162321E-06 -1.11538745E-05  1.02540828E-03
 -9.89523439E-05 -8.22476147E-05  1.13300252E-04 -1.75278528E-04 -2.07966270E-04
 -2.02837094E-04  3.62733919E-06 -1.62111368E-05 -1.80517727E-05  4.22977698E-05
  2.38725755E-04 -3.21795365E-05  1.00967227E-05  1.54880679E-05 -8.44620321E-04