PFMS Time step 30                                                       
SP        RB3LYP                                                      6-31G(d)            
Number of atoms                            I                9
Info1-9                                    I   N=           9
          18          18           0           0           0         110
           1          18        -502
Full Title                                 C   N=           2
PFMS Time step 30       
Route                                      C   N=           4
# B3LYP/6-31G(d) pop=full density=current       
Charge                                     I                0
Multiplicity                               I                1
Number of electrons                        I               74
Number of alpha electrons                  I               37
Number of beta electrons                   I               37
Number of basis functions                  I              126
Number of independent functions            I              126
Number of point charges in /Mol/           I                0
Number of translation vectors              I                0
Atomic numbers                             I   N=           9
           6           9           9           9          16           8
           8           8           1
Nuclear charges                            R   N=           9
  6.00000000E+00  9.00000000E+00  9.00000000E+00  9.00000000E+00  1.60000000E+01
  8.00000000E+00  8.00000000E+00  8.00000000E+00  1.00000000E+00
Current cartesian coordinates              R   N=          27
 -1.85821715E+00  1.01513634E-01  5.03151135E-02 -2.83371291E+00  3.07174294E-02
 -2.42718905E+00 -2.68770902E+00  2.27129682E+00  1.12881748E+00 -3.17750134E+00
 -1.88570072E+00  1.28278006E+00  1.59444018E+00 -4.05681408E-01  1.03997213E-01
  2.64575873E+00 -6.31067540E-02  2.64576201E+00  2.34350158E+00 -2.35770067E+00
 -1.43664748E+00  2.53113032E+00  2.24265704E+00 -1.44074315E+00  3.76544442E+00
  3.56020203E+00  2.75064421E-02
Number of symbols in /Mol/                 I                0
Int Atom Types                             I   N=           9
           0           0           0           0           0           0
           0           0           0
Force Field                                I                0
Atom Types                                 C   N=           9
                                                            
                                                
MM charges                                 R   N=           9
  0.00000000E+00  0.00000000E+00  0.00000000E+00  0.00000000E+00  0.00000000E+00
  0.00000000E+00  0.00000000E+00  0.00000000E+00  0.00000000E+00
Integer atomic weights                     I   N=           9
          12          19          19          19          32          16
          16          16           1
Real atomic weights                        R   N=           9
  1.20000000E+01  1.89984032E+01  1.89984032E+01  1.89984032E+01  3.19720718E+01
  1.59949146E+01  1.59949146E+01  1.59949146E+01  1.00782504E+00
Atom fragment info                         I   N=           9
           0           0           0           0           0           0
           0           0           0
Atom residue num                           I   N=           9
           0           0           0           0           0           0
           0           0           0
Nuclear spins                              I   N=           9
           0           1           1           1           0           0
           0           0           1
Nuclear ZEff                               R   N=           9
 -3.60000000E+00 -6.75000000E+00 -6.75000000E+00 -6.75000000E+00 -1.36000000E+01
 -5.60000000E+00 -5.60000000E+00 -5.60000000E+00 -1.00000000E+00
Nuclear ZNuc                               R   N=           9
  6.00000000E+00  9.00000000E+00  9.00000000E+00  9.00000000E+00  1.60000000E+01
  8.00000000E+00  8.00000000E+00  8.00000000E+00  1.00000000E+00
Nuclear QMom                               R   N=           9
  0.00000000E+00  0.00000000E+00  0.00000000E+00  0.00000000E+00  0.00000000E+00
  0.00000000E+00  0.00000000E+00  0.00000000E+00  0.00000000E+00
Nuclear GFac                               R   N=           9
  0.00000000E+00  2.62886700E+00  2.62886700E+00  2.62886700E+00  0.00000000E+00
  0.00000000E+00  0.00000000E+00  0.00000000E+00  2.79284600E+00
MicOpt                                     I   N=           9
          -1          -1          -1          -1          -1          -1
          -1          -1          -1
Number of residues                         I                0
Number of secondary structures             I                0
SymInf integers                            I   N=          26
           1           1           1           1           1           0
           0           0           0           0           0           0
           0           0           0           0           0           0
           0           0           0           0           0           0
           0           0
RotTr to input orientation                 R   N=          12
  9.60582107E-01  4.06521357E-02  2.75008037E-01 -8.07797611E-02  9.87382345E-01
  1.36201081E-01 -2.66001216E-01 -1.53047405E-01  9.51745683E-01  7.83430399E-02
  2.37848336E-02  2.60333268E-02
Number of contracted shells                I               35
Number of primitive shells                 I               98
Pure/Cartesian d shells                    I                1
Pure/Cartesian f shells                    I                0
Highest angular momentum                   I                2
Largest degree of contraction              I                6
Shell types                                I   N=          35
           0          -1          -1           2           0          -1
          -1           2           0          -1          -1           2
           0          -1          -1           2           0          -1
          -1          -1           2           0          -1          -1
           2           0          -1          -1           2           0
          -1          -1           2           0           0
Number of primitives per shell             I   N=          35
           6           3           1           1           6           3
           1           1           6           3           1           1
           6           3           1           1           6           6
           3           1           1           6           3           1
           1           6           3           1           1           6
           3           1           1           3           1
Shell to atom map                          I   N=          35
           1           1           1           1           2           2
           2           2           3           3           3           3
           4           4           4           4           5           5
           5           5           5           6           6           6
           6           7           7           7           7           8
           8           8           8           9           9
Primitive exponents                        R   N=          98
  3.04752488E+03  4.57369518E+02  1.03948685E+02  2.92101553E+01  9.28666296E+00
  3.16392696E+00  7.86827235E+00  1.88128854E+00  5.44249258E-01  1.68714478E-01
  8.00000000E-01  7.00171309E+03  1.05136609E+03  2.39285690E+02  6.73974453E+01
  2.15199573E+01  7.40310130E+00  2.08479528E+01  4.80830834E+00  1.34406986E+00
  3.58151393E-01  8.00000000E-01  7.00171309E+03  1.05136609E+03  2.39285690E+02
  6.73974453E+01  2.15199573E+01  7.40310130E+00  2.08479528E+01  4.80830834E+00
  1.34406986E+00  3.58151393E-01  8.00000000E-01  7.00171309E+03  1.05136609E+03
  2.39285690E+02  6.73974453E+01  2.15199573E+01  7.40310130E+00  2.08479528E+01
  4.80830834E+00  1.34406986E+00  3.58151393E-01  8.00000000E-01  2.19171000E+04
  3.30149000E+03  7.54146000E+02  2.12711000E+02  6.79896000E+01  2.30515000E+01
  4.23735000E+02  1.00710000E+02  3.21599000E+01  1.18079000E+01  4.63110000E+00
  1.87025000E+00  2.61584000E+00  9.22167000E-01  3.41287000E-01  1.17167000E-01
  6.50000000E-01  5.48467166E+03  8.25234946E+02  1.88046958E+02  5.29645000E+01
  1.68975704E+01  5.79963534E+00  1.55396162E+01  3.59993359E+00  1.01376175E+00
  2.70005823E-01  8.00000000E-01  5.48467166E+03  8.25234946E+02  1.88046958E+02
  5.29645000E+01  1.68975704E+01  5.79963534E+00  1.55396162E+01  3.59993359E+00
  1.01376175E+00  2.70005823E-01  8.00000000E-01  5.48467166E+03  8.25234946E+02
  1.88046958E+02  5.29645000E+01  1.68975704E+01  5.79963534E+00  1.55396162E+01
  3.59993359E+00  1.01376175E+00  2.70005823E-01  8.00000000E-01  1.87311370E+01
  2.82539436E+00  6.40121692E-01  1.61277759E-01
Contraction coefficients                   R   N=          98
  1.83473713E-03  1.40373228E-02  6.88426223E-02  2.32184443E-01  4.67941348E-01
  3.62311985E-01 -1.19332420E-01 -1.60854152E-01  1.14345644E+00  1.00000000E+00
  1.00000000E+00  1.81961690E-03  1.39160796E-02  6.84053245E-02  2.33185760E-01
  4.71267439E-01  3.56618546E-01 -1.08506975E-01 -1.46451658E-01  1.12868858E+00
  1.00000000E+00  1.00000000E+00  1.81961690E-03  1.39160796E-02  6.84053245E-02
  2.33185760E-01  4.71267439E-01  3.56618546E-01 -1.08506975E-01 -1.46451658E-01
  1.12868858E+00  1.00000000E+00  1.00000000E+00  1.81961690E-03  1.39160796E-02
  6.84053245E-02  2.33185760E-01  4.71267439E-01  3.56618546E-01 -1.08506975E-01
 -1.46451658E-01  1.12868858E+00  1.00000000E+00  1.00000000E+00  1.86924085E-03
  1.42303065E-02  6.96962317E-02  2.38487108E-01  4.83307220E-01  3.38074154E-01
 -2.37677050E-03 -3.16930067E-02 -1.13317024E-01  5.60900118E-02  5.92255124E-01
  4.55006095E-01 -2.50373114E-01  6.69567631E-02  1.05450627E+00  1.00000000E+00
  1.00000000E+00  1.83107443E-03  1.39501722E-02  6.84450781E-02  2.32714336E-01
  4.70192898E-01  3.58520853E-01 -1.10777550E-01 -1.48026263E-01  1.13076702E+00
  1.00000000E+00  1.00000000E+00  1.83107443E-03  1.39501722E-02  6.84450781E-02
  2.32714336E-01  4.70192898E-01  3.58520853E-01 -1.10777550E-01 -1.48026263E-01
  1.13076702E+00  1.00000000E+00  1.00000000E+00  1.83107443E-03  1.39501722E-02
  6.84450781E-02  2.32714336E-01  4.70192898E-01  3.58520853E-01 -1.10777550E-01
 -1.48026263E-01  1.13076702E+00  1.00000000E+00  1.00000000E+00  3.34946043E-02
  2.34726953E-01  8.13757326E-01  1.00000000E+00
P(S=P) Contraction coefficients            R   N=          98
  0.00000000E+00  0.00000000E+00  0.00000000E+00  0.00000000E+00  0.00000000E+00
  0.00000000E+00  6.89990666E-02  3.16423961E-01  7.44308291E-01  1.00000000E+00
  0.00000000E+00  0.00000000E+00  0.00000000E+00  0.00000000E+00  0.00000000E+00
  0.00000000E+00  0.00000000E+00  7.16287242E-02  3.45912103E-01  7.22469956E-01
  1.00000000E+00  0.00000000E+00  0.00000000E+00  0.00000000E+00  0.00000000E+00
  0.00000000E+00  0.00000000E+00  0.00000000E+00  7.16287242E-02  3.45912103E-01
  7.22469956E-01  1.00000000E+00  0.00000000E+00  0.00000000E+00  0.00000000E+00
  0.00000000E+00  0.00000000E+00  0.00000000E+00  0.00000000E+00  7.16287242E-02
  3.45912103E-01  7.22469956E-01  1.00000000E+00  0.00000000E+00  0.00000000E+00
  0.00000000E+00  0.00000000E+00  0.00000000E+00  0.00000000E+00  0.00000000E+00
  4.06100998E-03  3.06812999E-02  1.30451999E-01  3.27204999E-01  4.52850998E-01
  2.56041999E-01 -1.45104895E-02  3.10262776E-01  7.54482456E-01  1.00000000E+00
  0.00000000E+00  0.00000000E+00  0.00000000E+00  0.00000000E+00  0.00000000E+00
  0.00000000E+00  0.00000000E+00  7.08742682E-02  3.39752839E-01  7.27158577E-01
  1.00000000E+00  0.00000000E+00  0.00000000E+00  0.00000000E+00  0.00000000E+00
  0.00000000E+00  0.00000000E+00  0.00000000E+00  7.08742682E-02  3.39752839E-01
  7.27158577E-01  1.00000000E+00  0.00000000E+00  0.00000000E+00  0.00000000E+00
  0.00000000E+00  0.00000000E+00  0.00000000E+00  0.00000000E+00  7.08742682E-02
  3.39752839E-01  7.27158577E-01  1.00000000E+00  0.00000000E+00  0.00000000E+00
  0.00000000E+00  0.00000000E+00  0.00000000E+00
Coordinates of each shell                  R   N=         105
 -1.85821715E+00  1.01513634E-01  5.03151135E-02 -1.85821715E+00  1.01513634E-01
  5.03151135E-02 -1.85821715E+00  1.01513634E-01  5.03151135E-02 -1.85821715E+00
  1.01513634E-01  5.03151135E-02 -2.83371291E+00  3.07174294E-02 -2.42718905E+00
 -2.83371291E+00  3.07174294E-02 -2.42718905E+00 -2.83371291E+00  3.07174294E-02
 -2.42718905E+00 -2.83371291E+00  3.07174294E-02 -2.42718905E+00 -2.68770902E+00
  2.27129682E+00  1.12881748E+00 -2.68770902E+00  2.27129682E+00  1.12881748E+00
 -2.68770902E+00  2.27129682E+00  1.12881748E+00 -2.68770902E+00  2.27129682E+00
  1.12881748E+00 -3.17750134E+00 -1.88570072E+00  1.28278006E+00 -3.17750134E+00
 -1.88570072E+00  1.28278006E+00 -3.17750134E+00 -1.88570072E+00  1.28278006E+00
 -3.17750134E+00 -1.88570072E+00  1.28278006E+00  1.59444018E+00 -4.05681408E-01
  1.03997213E-01  1.59444018E+00 -4.05681408E-01  1.03997213E-01  1.59444018E+00
 -4.05681408E-01  1.03997213E-01  1.59444018E+00 -4.05681408E-01  1.03997213E-01
  1.59444018E+00 -4.05681408E-01  1.03997213E-01  2.64575873E+00 -6.31067540E-02
  2.64576201E+00  2.64575873E+00 -6.31067540E-02  2.64576201E+00  2.64575873E+00
 -6.31067540E-02  2.64576201E+00  2.64575873E+00 -6.31067540E-02  2.64576201E+00
  2.34350158E+00 -2.35770067E+00 -1.43664748E+00  2.34350158E+00 -2.35770067E+00
 -1.43664748E+00  2.34350158E+00 -2.35770067E+00 -1.43664748E+00  2.34350158E+00
 -2.35770067E+00 -1.43664748E+00  2.53113032E+00  2.24265704E+00 -1.44074315E+00
  2.53113032E+00  2.24265704E+00 -1.44074315E+00  2.53113032E+00  2.24265704E+00
 -1.44074315E+00  2.53113032E+00  2.24265704E+00 -1.44074315E+00  3.76544442E+00
  3.56020203E+00  2.75064421E-02  3.76544442E+00  3.56020203E+00  2.75064421E-02
Num ILSW                                   I              100
ILSW                                       I   N=         100
           0           1           0           0           2           0
           0           0           0           0         402          -1
           5           0           0           0           0           0
           0           0           1           0           0           0
           1           0           0           0           0           0
           0           0      100000           0          -1           0
           0           0           0           0           0           0
           0           0           0           1           0           0
           0 -2000000000           1           0           0           0
           0           0           4          52           0           0
           0           0           5           0           0           0
           0           0           0           0           0           1
           0           0           0           0           0           0
           0           0           0           0           0           0
           0           0           0           0           0           0
           0           0           0           0           0           0
           0           0           0           0
Num RLSW                                   I               52
RLSW                                       R   N=          52
  8.00000000E-01  7.20000000E-01  1.00000000E+00  8.10000000E-01  2.00000000E-01
  0.00000000E+00  0.00000000E+00  1.00000000E+00  0.00000000E+00  0.00000000E+00
  0.00000000E+00  0.00000000E+00  1.00000000E+00  0.00000000E+00  0.00000000E+00
  0.00000000E+00  0.00000000E+00  1.00000000E+00  0.00000000E+00  0.00000000E+00
  0.00000000E+00  0.00000000E+00  1.00000000E+00  0.00000000E+00  0.00000000E+00
  0.00000000E+00  0.00000000E+00  1.00000000E+00  0.00000000E+00  0.00000000E+00
  0.00000000E+00  0.00000000E+00  1.00000000E+00  0.00000000E+00  0.00000000E+00
  0.00000000E+00  0.00000000E+00  0.00000000E+00  1.00000000E+00  1.00000000E+00
  0.00000000E+00  1.00000000E+00  0.00000000E+00  0.00000000E+00  0.00000000E+00
  0.00000000E+00  0.00000000E+00  0.00000000E+00  0.00000000E+00  0.00000000E+00
  0.00000000E+00  0.00000000E+00
MxBond                                     I                4
NBond                                      I   N=           9
           4           1           1           1           4           1
           1           1           0
IBond                                      I   N=          36
           2           3           4           5           1           0
           0           0           1           0           0           0
           1           0           0           0           1           6
           7           8           5           0           0           0
           5           0           0           0           5           0
           0           0           0           0           0           0
RBond                                      R   N=          36
  1.00000000E+00  1.00000000E+00  1.00000000E+00  1.00000000E+00  1.00000000E+00
  0.00000000E+00  0.00000000E+00  0.00000000E+00  1.00000000E+00  0.00000000E+00
  0.00000000E+00  0.00000000E+00  1.00000000E+00  0.00000000E+00  0.00000000E+00
  0.00000000E+00  1.00000000E+00  2.00000000E+00  3.00000000E+00  1.00000000E+00
  2.00000000E+00  0.00000000E+00  0.00000000E+00  0.00000000E+00  3.00000000E+00
  0.00000000E+00  0.00000000E+00  0.00000000E+00  1.00000000E+00  0.00000000E+00
  0.00000000E+00  0.00000000E+00  0.00000000E+00  0.00000000E+00  0.00000000E+00
  0.00000000E+00
Virial Ratio                               R      2.006394937251817E+00
SCF Energy                                 R     -9.619343205562091E+02
Total Energy                               R     -9.619343205562091E+02
RMS Density                                R      5.098886014146295E-09
Job Status                                 I                1
Nuclear derivative order                   I                0
External E-field                           R   N=          35
  0.00000000E+00  0.00000000E+00  0.00000000E+00  0.00000000E+00  0.00000000E+00
  0.00000000E+00  0.00000000E+00  0.00000000E+00  0.00000000E+00  0.00000000E+00
  0.00000000E+00  0.00000000E+00  0.00000000E+00  0.00000000E+00  0.00000000E+00
  0.00000000E+00  0.00000000E+00  0.00000000E+00  0.00000000E+00  0.00000000E+00
  0.00000000E+00  0.00000000E+00  0.00000000E+00  0.00000000E+00  0.00000000E+00
  0.00000000E+00  0.00000000E+00  0.00000000E+00  0.00000000E+00  0.00000000E+00
  0.00000000E+00  0.00000000E+00  0.00000000E+00  0.00000000E+00  0.00000000E+00
IOpCl                                      I                0
IROHF                                      I                0
Alpha Orbital Energies                     R   N=         126
 -8.91727188E+01 -2.47839006E+01 -2.47615434E+01 -2.47591569E+01 -1.92391250E+01
 -1.92101478E+01 -1.91953747E+01 -1.05011280E+01 -8.19965486E+00 -6.16457052E+00
 -6.16331098E+00 -6.16285548E+00 -1.32558628E+00 -1.24970183E+00 -1.22823444E+00
 -1.19976450E+00 -1.07304067E+00 -1.02327836E+00 -7.93728178E-01 -6.81125707E-01
 -6.15493199E-01 -6.07582379E-01 -5.94752762E-01 -5.50167150E-01 -5.11202895E-01
 -4.96092216E-01 -4.87662628E-01 -4.82089732E-01 -4.62194156E-01 -4.55532650E-01
 -4.46229264E-01 -4.30299057E-01 -4.03991966E-01 -3.87630410E-01 -3.70107682E-01
 -3.57192587E-01 -3.43602158E-01 -6.32149192E-02 -3.01473391E-02  3.43767004E-03
  1.83615105E-02  8.89262343E-02  1.16849460E-01  1.39492482E-01  1.91960655E-01
  2.84670849E-01  3.11153347E-01  3.38593609E-01  3.99750388E-01  4.58323868E-01
  4.96179380E-01  5.18090937E-01  6.46006107E-01  6.68515912E-01  6.89402097E-01
  7.51705382E-01  7.63750526E-01  7.98566875E-01  8.59424372E-01  8.73861026E-01
  9.27825470E-01  9.67246278E-01  9.76945780E-01  9.99062446E-01  1.01250530E+00
  1.03443231E+00  1.08121093E+00  1.09671057E+00  1.10050798E+00  1.12888724E+00
  1.16919164E+00  1.18543392E+00  1.21951573E+00  1.27116121E+00  1.28940342E+00
  1.32409208E+00  1.34635479E+00  1.35138512E+00  1.35943855E+00  1.37994808E+00
  1.52317863E+00  1.54996622E+00  1.57712122E+00  1.60072524E+00  1.68676481E+00
  1.71247725E+00  1.73425131E+00  1.74985650E+00  1.76906553E+00  1.78441899E+00
  1.78833221E+00  1.79751187E+00  1.81375146E+00  1.82509868E+00  1.83250681E+00
  1.86314448E+00  1.90504418E+00  1.92253122E+00  1.94577041E+00  1.97267990E+00
  1.98869967E+00  2.01069293E+00  2.05105790E+00  2.09197574E+00  2.11564400E+00
  2.14201194E+00  2.17441399E+00  2.18334443E+00  2.29210378E+00  2.38309552E+00
  2.58138400E+00  2.61846179E+00  2.64035093E+00  2.72861465E+00  2.81714518E+00
  2.85577838E+00  3.00389583E+00  3.02497024E+00  3.54834760E+00  3.84484142E+00
  3.86022920E+00  3.93946226E+00  4.24487820E+00  4.29373420E+00  4.34160656E+00
  5.06712647E+00
Alpha MO coefficients                      R   N=       15876
 -2.50737505E-05 -6.71834252E-05  5.05739551E-05 -1.01534826E-06  4.33972776E-06
  8.10342505E-04  3.75609253E-04 -1.20500315E-04 -3.76148365E-05 -4.44607214E-05
 -4.66334988E-06 -3.68751251E-06  1.81661084E-05  1.18100748E-06  1.90024777E-06
  1.91299567E-05  1.15839340E-04  1.16634375E-05 -4.98555976E-06 -3.55796017E-06
 -4.28299963E-04 -1.33482167E-04  2.96404962E-05 -6.34365234E-05  6.40957382E-05
  5.52395857E-05  7.30836600E-05 -3.79566086E-07 -2.97566925E-05  9.85503319E-06
  1.41768292E-05  8.66688886E-05  1.56674175E-05  3.34493077E-06  3.00899565E-06
 -3.04943048E-04 -1.34540187E-04  4.39306157E-05  1.14782698E-05  4.23107045E-05
  5.41605543E-05  4.56427234E-05  2.99929587E-05  1.54954317E-05  1.13012078E-05
  2.15640157E-05  1.28946532E-04  1.47104923E-05 -6.65855968E-06  2.38375686E-07
 -4.63442801E-04 -1.53749646E-04 -2.43815951E-05  4.02563259E-05  6.39217115E-05
  8.89784014E-05  6.91059858E-05 -2.25199459E-05  1.65674141E-05 -9.22159993E-06
  9.96122463E-01  1.48653852E-02 -1.36338888E-05  1.95292103E-05 -1.40206109E-05
 -2.41298404E-02  8.48318241E-05 -6.40943658E-05  2.80270161E-05  1.52041841E-03
 -2.68939919E-05 -4.45150311E-05  7.60647687E-05  8.48928331E-03  8.57240782E-03
  8.61737354E-03 -1.44362073E-05  6.57084516E-06  5.01145001E-05  1.47587640E-05
  3.80010199E-06  3.44782356E-05  1.65320992E-05  1.12677998E-04  3.99075798E-04
 -6.85255259E-05 -3.54548782E-05 -2.89242676E-04  5.97205497E-06  5.22447585E-05
 -1.68263418E-04 -1.28747848E-05 -1.19057667E-04 -3.29645461E-05  1.21349093E-05
 -5.45867296E-05  4.31007921E-05 -1.44935074E-04 -1.14208991E-04  4.91704847E-04
 -4.49781269E-05  2.55566245E-04  1.88347270E-04  3.09525245E-05 -8.13777528E-05
 -2.49425178E-05  7.42953491E-05  5.61226670E-05 -1.32317320E-04 -1.56106481E-05
 -2.07156180E-05 -2.57809190E-05 -2.55296992E-05 -3.01864548E-06  5.47194801E-04
 -1.57549423E-05 -2.24185960E-04  1.99955315E-04 -5.59228359E-05 -1.03036261E-04
 -5.74993724E-05 -1.87652113E-05  3.13143635E-05  5.67541253E-05 -5.86449529E-05
 -8.13393342E-05 -3.18820854E-05  5.37780561E-05 -3.07047428E-04  5.52533538E-04
  2.61120930E-04  3.86964690E-04  4.94375732E-04 -1.66474581E-04  4.65543648E-06
  6.20885032E-05  3.72609148E-04  1.04204031E-04 -1.71005583E-04 -9.25522498E-05
  2.00717894E-04  4.45118064E-05  6.41727120E-05  1.46702088E-06  1.22447657E-05
  1.94707035E-05 -5.52533968E-05 -2.14942836E-05 -8.22331477E-05 -1.15134148E-04
  4.50781696E-05 -2.17789498E-05 -6.48233474E-05  1.13084056E-05 -2.06893216E-05
 -8.63408984E-05  9.93012752E-01  1.97295318E-02  2.73963630E-04 -6.53236069E-04
 -3.22820416E-04  1.47240696E-02 -1.63707710E-04  4.67935232E-04  2.24577594E-04
 -7.97024380E-03 -8.29923328E-03 -8.03531760E-03  1.66578743E-04  8.48868169E-05
 -1.95702431E-04  4.09857950E-05  9.61792698E-05  6.18052776E-06  2.27670528E-05
  5.17242891E-07 -1.72464412E-04 -5.06778360E-05 -1.57422869E-04 -8.05999272E-06
  5.65587110E-05 -9.96865622E-05  6.33599638E-05 -2.62222964E-05  1.96225199E-05
 -1.08701322E-05  3.12259837E-06  5.48567268E-05  6.38651586E-06 -3.09303378E-07
  9.94446685E-07  2.23559319E-04 -8.86804077E-05  2.70131446E-05 -2.93501360E-05
 -1.46104146E-03  4.54316295E-04 -7.29759212E-04 -2.87105934E-04  3.22042972E-05
  4.74698122E-05  1.82714519E-05 -1.23762664E-05 -4.09123383E-06  6.50457648E-08
 -4.19943716E-05 -1.86484410E-04  2.53464128E-05 -2.07121998E-05  1.47834506E-05
  9.52468294E-04 -2.06082641E-04  1.29212882E-04 -1.93215448E-04 -1.09453460E-04
 -1.27950957E-04 -1.17452138E-04 -1.14371350E-05  2.37688612E-05 -2.43997375E-05
  1.23182536E-05  4.24437254E-05  9.71223399E-06 -1.02074063E-05  6.39547287E-06
 -2.32326348E-04 -4.50363773E-05  6.00782300E-05 -3.06098037E-05  3.60336852E-05
  4.78088409E-05  3.38439394E-05 -2.01808659E-06  2.74391055E-06 -4.03192480E-06
 -2.87063072E-05 -1.42205135E-04  1.06018550E-05  1.66454189E-05 -1.22730745E-05
  7.13225644E-04 -1.46543667E-04 -1.53750185E-04  1.60319278E-04 -7.41125302E-05
 -9.08061841E-05 -5.78662586E-05  1.32204039E-05 -1.71645725E-05 -1.04996153E-05
 -2.52406943E-05  1.05379084E-04 -3.11352383E-05 -1.27682242E-04 -2.82074775E-04
  1.17291500E-05 -4.99052677E-04  2.59340719E-04  4.46683498E-04 -1.22680776E-04
 -4.49071076E-05  1.28599919E-04  5.12551233E-05  5.58213990E-04  1.36745102E-05
  2.64419291E-04  1.63688756E-05  9.93024997E-01  1.97309438E-02  2.77184653E-04
  2.55888805E-05  6.57830860E-04  1.46376783E-02 -1.48324364E-04 -1.10009847E-05
 -4.59677775E-04 -7.96007406E-03 -7.93406766E-03 -8.31682595E-03 -8.84926886E-06
 -1.92875743E-04 -8.06309680E-06 -4.64209935E-05  3.75569539E-05  4.42215749E-07
 -1.16322477E-05 -2.42527899E-05  6.11811915E-05 -5.38993317E-06  4.19021191E-05
  1.37328891E-04  3.05861515E-05 -1.02995360E-05 -1.02311083E-04  2.16213274E-05
 -1.74024834E-05 -7.35043169E-05  2.86834421E-04  7.53107246E-05  2.88486126E-06
  5.84678809E-06 -2.52282766E-05 -7.22152699E-05 -2.02390157E-05 -2.52448700E-05
  1.61456904E-04  4.12152405E-05  3.51912908E-05 -9.95556193E-05 -1.99298071E-05
  3.78537062E-06  6.62537496E-05  2.63546118E-06  4.88503168E-05  7.13751706E-06
 -4.68360616E-07 -3.60806282E-06  1.88416771E-04 -9.28142344E-05  3.59766188E-05
  2.12988504E-05 -1.32843535E-03  5.19214758E-04 -8.43123769E-05  7.92512663E-04
  3.67525466E-05  3.89528544E-05  3.71117685E-05 -1.13143765E-05  4.86324692E-06
 -7.23828797E-06  1.82635016E-05  6.82854023E-05  1.02568544E-05 -9.40133234E-06
 -2.33421366E-06 -3.71295074E-04 -3.66453936E-05  4.87638191E-05  9.78850576E-06
  5.63988809E-05  5.54703823E-05  5.77361034E-05 -3.16240306E-06  1.36489783E-06
 -6.77515338E-06 -3.89429674E-05 -1.80090936E-04  1.37119925E-05 -1.89594041E-05
  1.24750588E-05  9.55276548E-04 -1.73006050E-04  2.21644558E-04 -3.63763134E-05
 -1.00627503E-04 -8.86270054E-05 -1.30898223E-04 -1.89461945E-05 -4.12038554E-06
 -1.51135935E-05 -3.42495287E-05 -1.55579092E-04  1.01970497E-05  2.20092734E-05
  4.29583672E-06  7.77657792E-04 -1.38731244E-04 -2.15709768E-04  1.07947583E-07
 -9.23510956E-05 -8.03467007E-05 -1.12370115E-04  2.55727147E-05 -3.67702404E-06
  1.24472652E-05 -6.54001526E-06  5.85801678E-06 -2.35013072E-05 -1.32116949E-04
 -3.29706711E-04 -3.68324310E-04  2.45571389E-04  5.17431392E-05  3.84872358E-04
  3.68546844E-05 -5.89883268E-05  2.15442486E-04  3.87728395E-04  1.88967679E-04
  2.77838189E-04 -1.74976426E-04 -2.21260971E-04 -2.83969976E-04  4.70033128E-05
 -5.84434926E-06 -1.36275230E-05  1.95591131E-05 -2.31996417E-05  2.58351160E-05
  9.10083455E-05 -1.08269021E-04  3.62543585E-05 -7.92324434E-06 -7.22120477E-05
 -2.77169633E-05  7.81640657E-06  8.47679378E-05 -3.24450759E-05  6.44045372E-05
 -2.81988795E-06 -2.49933373E-05  1.32700868E-06 -4.17078715E-05  1.07735275E-05
  1.42849545E-04 -2.38129219E-05  3.95069368E-05 -1.12053982E-04  3.89023846E-05
 -1.87092079E-05  2.92570377E-05  1.75673665E-05  9.93024222E-01  1.97086146E-02
  3.69863453E-04  5.06371041E-04 -3.05538837E-04  1.47375826E-02 -2.01381750E-04
 -3.19717063E-04  1.92202375E-04 -8.02199062E-03 -8.16745428E-03 -8.02526265E-03
 -1.94342730E-04  1.18394379E-04  1.67597165E-04  1.10313416E-06  2.71573017E-05
  9.45285729E-06 -1.44782980E-06 -6.08919846E-07  8.24616338E-05 -1.20360887E-04
  2.41740445E-05  9.52039924E-06 -1.03805991E-03  4.90517507E-04  2.26207371E-04
 -1.26579239E-04  2.48915899E-05  4.08908819E-05  2.09428278E-05 -2.91126599E-06
 -5.52907117E-06 -2.52706236E-05 -2.62939080E-05 -1.11742767E-04  3.01736777E-05
  1.47091659E-05  6.26345769E-06  5.35578456E-04 -1.78606875E-04 -8.41888073E-05
 -9.48954100E-05 -7.03141179E-05 -7.89630802E-05 -8.05117095E-05  1.13475790E-05
  2.17622173E-05  9.07591494E-06 -2.99252795E-05 -1.29470023E-04  2.96475734E-05
  1.85407731E-06 -1.75456586E-05  6.37446389E-04 -1.81978760E-04  5.70527579E-05
  1.43357103E-04 -8.43020901E-05 -9.40567794E-05 -7.94337130E-05 -1.50677786E-05
 -2.05017474E-05  6.64792973E-06  3.15523196E-07  2.60082469E-07  1.27116326E-05
 -4.47084306E-06  1.57379268E-06  8.58718866E-06 -6.63863527E-05 -1.63153574E-06
  5.08270514E-06  4.10632277E-06 -9.43870384E-07  2.74647919E-06  8.79575567E-06
 -4.64285129E-06  2.90256093E-06  5.25492969E-06 -1.57150785E-05 -2.50100146E-05
 -1.61040842E-04  3.33239726E-05  3.75307782E-06  1.57921595E-05  1.04441258E-03
  4.83475097E-04 -6.33442060E-04 -7.87773145E-05  5.07252681E-05 -2.53270688E-05
 -1.95141209E-05  3.61204082E-05 -1.43047997E-05 -3.06827948E-05 -3.65493646E-05
 -1.90992082E-04 -3.58825647E-05 -1.06242937E-05 -1.80715709E-06  5.41404510E-04
  1.18913353E-04  9.86993584E-05 -1.05801343E-05 -1.04494464E-04 -1.77867048E-04
 -1.62828265E-04  8.89799163E-06 -5.06325292E-06  2.97306421E-05 -4.86365006E-05
 -2.77383107E-04 -1.60488161E-05  1.08125873E-05  7.77812997E-06  9.57564981E-04
  9.53856503E-05 -8.60930721E-05 -9.22113639E-05 -1.60552025E-04 -1.92325074E-04
 -1.94878793E-04 -4.35450370E-06 -1.33679771E-05  1.70419393E-05  4.41282452E-05
  2.48585830E-04  3.30756858E-05  7.48515555E-06 -1.71030975E-05 -8.82372907E-04