 Entering Gaussian System, Link 0=g16
 Input=PFMS_1000K_step0045.gjf
 Output=PFMS_1000K_step0045.log
 Initial command:
 /apps/easybuild-2022/easybuild/software/Compiler/NVHPC/22.11-CUDA-11.7.0/Gaussian/g16c01-CUDA-11.7.0/g16/l1.exe "/tmp/Gau-271592.inp" -scrdir="/tmp/"
 Default is to use a total of   4 processors:
                                4 via shared-memory
                                1 via Linda
 Entering Link 1 = /apps/easybuild-2022/easybuild/software/Compiler/NVHPC/22.11-CUDA-11.7.0/Gaussian/g16c01-CUDA-11.7.0/g16/l1.exe PID=    271593.
  
 Copyright (c) 1988-2019, Gaussian, Inc.  All Rights Reserved.
  
 This is part of the Gaussian(R) 16 program.  It is based on
 the Gaussian(R) 09 system (copyright 2009, Gaussian, Inc.),
 the Gaussian(R) 03 system (copyright 2003, Gaussian, Inc.),
 the Gaussian(R) 98 system (copyright 1998, Gaussian, Inc.),
 the Gaussian(R) 94 system (copyright 1995, Gaussian, Inc.),
 the Gaussian 92(TM) system (copyright 1992, Gaussian, Inc.),
 the Gaussian 90(TM) system (copyright 1990, Gaussian, Inc.),
 the Gaussian 88(TM) system (copyright 1988, Gaussian, Inc.),
 the Gaussian 86(TM) system (copyright 1986, Carnegie Mellon
 University), and the Gaussian 82(TM) system (copyright 1983,
 Carnegie Mellon University). Gaussian is a federally registered
 trademark of Gaussian, Inc.
  
 This software contains proprietary and confidential information,
 including trade secrets, belonging to Gaussian, Inc.
  
 This software is provided under written license and may be
 used, copied, transmitted, or stored only in accord with that
 written license.
  
 The following legend is applicable only to US Government
 contracts under FAR:
  
                    RESTRICTED RIGHTS LEGEND
  
 Use, reproduction and disclosure by the US Government is
 subject to restrictions as set forth in subparagraphs (a)
 and (c) of the Commercial Computer Software - Restricted
 Rights clause in FAR 52.227-19.
  
 Gaussian, Inc.
 340 Quinnipiac St., Bldg. 40, Wallingford CT 06492
  
  
 ---------------------------------------------------------------
 Warning -- This program may not be used in any manner that
 competes with the business of Gaussian, Inc. or will provide
 assistance to any competitor of Gaussian, Inc.  The licensee
 of this program is prohibited from giving any competitor of
 Gaussian, Inc. access to this program.  By using this program,
 the user acknowledges that Gaussian, Inc. is engaged in the
 business of creating and licensing software in the field of
 computational chemistry and represents and warrants to the
 licensee that it is not a competitor of Gaussian, Inc. and that
 it will not use this program in any manner prohibited above.
 ---------------------------------------------------------------
  

 Cite this work as:
 Gaussian 16, Revision C.01,
 M. J. Frisch, G. W. Trucks, H. B. Schlegel, G. E. Scuseria, 
 M. A. Robb, J. R. Cheeseman, G. Scalmani, V. Barone, 
 G. A. Petersson, H. Nakatsuji, X. Li, M. Caricato, A. V. Marenich, 
 J. Bloino, B. G. Janesko, R. Gomperts, B. Mennucci, H. P. Hratchian, 
 J. V. Ortiz, A. F. Izmaylov, J. L. Sonnenberg, D. Williams-Young, 
 F. Ding, F. Lipparini, F. Egidi, J. Goings, B. Peng, A. Petrone, 
 T. Henderson, D. Ranasinghe, V. G. Zakrzewski, J. Gao, N. Rega, 
 G. Zheng, W. Liang, M. Hada, M. Ehara, K. Toyota, R. Fukuda, 
 J. Hasegawa, M. Ishida, T. Nakajima, Y. Honda, O. Kitao, H. Nakai, 
 T. Vreven, K. Throssell, J. A. Montgomery, Jr., J. E. Peralta, 
 F. Ogliaro, M. J. Bearpark, J. J. Heyd, E. N. Brothers, K. N. Kudin, 
 V. N. Staroverov, T. A. Keith, R. Kobayashi, J. Normand, 
 K. Raghavachari, A. P. Rendell, J. C. Burant, S. S. Iyengar, 
 J. Tomasi, M. Cossi, J. M. Millam, M. Klene, C. Adamo, R. Cammi, 
 J. W. Ochterski, R. L. Martin, K. Morokuma, O. Farkas, 
 J. B. Foresman, and D. J. Fox, Gaussian, Inc., Wallingford CT, 2019.
 
 ******************************************
 Gaussian 16:  ES64L-G16RevC.01  3-Jul-2019
                20-Mar-2025 
 ******************************************
 %chk=PFMS_1000K_step0045.chk
 %mem=8GB
 %nprocshared=4
 Will use up to    4 processors via shared memory.
 -----------------------------------------
 # B3LYP/6-31G(d) pop=full density=current
 -----------------------------------------
 1/30=1,38=1,172=1/1;
 2/12=2,17=6,18=5,40=1/2;
 3/5=1,6=6,7=1,11=2,25=1,30=1,74=-5/1,2,3;
 4//1;
 5/5=2,38=5/2;
 6/7=3,22=-1,28=1/1;
 99/5=1,9=1/99;
 -----------------
 PFMS Time step 45
 -----------------
 Symbolic Z-matrix:
 Charge =  0 Multiplicity = 1
 C                    -0.91906   0.03397  -0.21578 
 F                    -1.05306   0.156    -1.62651 
 F                    -1.59369   1.05109   0.3534 
 F                    -1.68486  -1.15225   0.05831 
 S                     0.85671  -0.18237   0.27436 
 O                     1.03234  -0.18414   1.73335 
 O                     1.52025  -1.03644  -0.5394 
 O                     1.45728   1.37159  -0.18734 
 H                     1.78043   1.95073   0.79007 
 
                          Input orientation:                          
 ---------------------------------------------------------------------
 Center     Atomic      Atomic             Coordinates (Angstroms)
 Number     Number       Type             X           Y           Z
 ---------------------------------------------------------------------
      1          6           0       -0.919062    0.033967   -0.215775
      2          9           0       -1.053063    0.156000   -1.626507
      3          9           0       -1.593687    1.051085    0.353395
      4          9           0       -1.684860   -1.152251    0.058311
      5         16           0        0.856706   -0.182368    0.274356
      6          8           0        1.032343   -0.184144    1.733350
      7          8           0        1.520245   -1.036443   -0.539400
      8          8           0        1.457275    1.371592   -0.187341
      9          1           0        1.780432    1.950728    0.790068
 ---------------------------------------------------------------------
                    Distance matrix (angstroms):
                    1          2          3          4          5
     1  C    0.000000
     2  F    1.422327   0.000000
     3  F    1.346701   2.239076   0.000000
     4  F    1.438292   2.224702   2.224877   0.000000
     5  S    1.854826   2.715693   2.744463   2.728902   0.000000
     6  O    2.766702   3.969037   3.213425   3.335593   1.469529
     7  O    2.683417   3.037373   3.853755   3.262418   1.353487
     8  O    2.727091   3.138576   3.115042   4.037715   1.728768
     9  H    3.460197   4.133954   3.519193   4.708736   2.381035
                    6          7          8          9
     6  O    0.000000
     7  O    2.475854   0.000000
     8  O    2.507974   2.434449   0.000000
     9  H    2.450938   3.279996   1.181168   0.000000
 Stoichiometry    CHF3O3S
 Framework group  C1[X(CHF3O3S)]
 Deg. of freedom    21
 Full point group                 C1      NOp   1
 Largest Abelian subgroup         C1      NOp   1
 Largest concise Abelian subgroup C1      NOp   1
                         Standard orientation:                         
 ---------------------------------------------------------------------
 Center     Atomic      Atomic             Coordinates (Angstroms)
 Number     Number       Type             X           Y           Z
 ---------------------------------------------------------------------
      1          6           0        0.984475    0.067402   -0.043781
      2          9           0        1.494922    0.217158    1.275321
      3          9           0        1.428364    1.104456   -0.779366
      4          9           0        1.700283   -1.087822   -0.514694
      5         16           0       -0.845444   -0.235017   -0.025915
      6          8           0       -1.414772   -0.267244   -1.380294
      7          8           0       -1.219152   -1.104917    0.941320
      8          8           0       -1.368279    1.297782    0.578907
      9          1           0       -1.974249    1.846769   -0.273484
 ---------------------------------------------------------------------
 Rotational constants (GHZ):           2.5665239           1.4134517           1.4056584
 Standard basis: 6-31G(d) (6D, 7F)
 There are   126 symmetry adapted cartesian basis functions of A   symmetry.
 There are   126 symmetry adapted basis functions of A   symmetry.
   126 basis functions,   252 primitive gaussians,   126 cartesian basis functions
    37 alpha electrons       37 beta electrons
       nuclear repulsion energy       549.7518160666 Hartrees.
 NAtoms=    9 NActive=    9 NUniq=    9 SFac= 1.00D+00 NAtFMM=   60 NAOKFM=F Big=F
 Integral buffers will be    131072 words long.
 Raffenetti 2 integral format.
 Two-electron integral symmetry is turned on.
 One-electron integrals computed using PRISM.
 NBasis=   126 RedAO= T EigKep=  2.67D-03  NBF=   126
 NBsUse=   126 1.00D-06 EigRej= -1.00D+00 NBFU=   126
 ExpMin= 1.17D-01 ExpMax= 2.19D+04 ExpMxC= 3.30D+03 IAcc=3 IRadAn=         5 AccDes= 0.00D+00
 Harris functional with IExCor=  402 and IRadAn=       5 diagonalized for initial guess.
 HarFok:  IExCor=  402 AccDes= 0.00D+00 IRadAn=         5 IDoV= 1 UseB2=F ITyADJ=14
 ICtDFT=  3500011 ScaDFX=  1.000000  1.000000  1.000000  1.000000
 FoFCou: FMM=F IPFlag=           0 FMFlag=      100000 FMFlg1=           0
         NFxFlg=           0 DoJE=T BraDBF=F KetDBF=T FulRan=T
         wScrn=  0.000000 ICntrl=       500 IOpCl=  0 I1Cent=   200000004 NGrid=           0
         NMat0=    1 NMatS0=      1 NMatT0=    0 NMatD0=    1 NMtDS0=    0 NMtDT0=    0
 Petite list used in FoFCou.
 Keep R1 ints in memory in canonical form, NReq=35818892.
 Requested convergence on RMS density matrix=1.00D-08 within 128 cycles.
 Requested convergence on MAX density matrix=1.00D-06.
 Requested convergence on             energy=1.00D-06.
 No special actions if energy rises.
 Integral accuracy reduced to 1.0D-05 until final iterations.
 Initial convergence to 1.0D-05 achieved.  Increase integral accuracy.
 SCF Done:  E(RB3LYP) =  -961.932902715     A.U. after   15 cycles
            NFock= 15  Conv=0.44D-08     -V/T= 2.0063

 **********************************************************************

            Population analysis using the SCF Density.

 **********************************************************************

 Orbital symmetries:
       Occupied  (A) (A) (A) (A) (A) (A) (A) (A) (A) (A) (A) (A)
                 (A) (A) (A) (A) (A) (A) (A) (A) (A) (A) (A) (A)
                 (A) (A) (A) (A) (A) (A) (A) (A) (A) (A) (A) (A)
                 (A)
       Virtual   (A) (A) (A) (A) (A) (A) (A) (A) (A) (A) (A) (A)
                 (A) (A) (A) (A) (A) (A) (A) (A) (A) (A) (A) (A)
                 (A) (A) (A) (A) (A) (A) (A) (A) (A) (A) (A) (A)
                 (A) (A) (A) (A) (A) (A) (A) (A) (A) (A) (A) (A)
                 (A) (A) (A) (A) (A) (A) (A) (A) (A) (A) (A) (A)
                 (A) (A) (A) (A) (A) (A) (A) (A) (A) (A) (A) (A)
                 (A) (A) (A) (A) (A) (A) (A) (A) (A) (A) (A) (A)
                 (A) (A) (A) (A) (A)
 The electronic state is 1-A.
 Alpha  occ. eigenvalues --  -89.17306 -24.79041 -24.75972 -24.75544 -19.23300
 Alpha  occ. eigenvalues --  -19.21479 -19.19857 -10.50278  -8.20089  -6.16561
 Alpha  occ. eigenvalues --   -6.16466  -6.16395  -1.32698  -1.24904  -1.22160
 Alpha  occ. eigenvalues --   -1.20955  -1.07692  -1.01864  -0.79371  -0.68194
 Alpha  occ. eigenvalues --   -0.61633  -0.60614  -0.59392  -0.55433  -0.51375
 Alpha  occ. eigenvalues --   -0.50005  -0.48778  -0.47970  -0.46358  -0.45560
 Alpha  occ. eigenvalues --   -0.44387  -0.42772  -0.40645  -0.39305  -0.36990
 Alpha  occ. eigenvalues --   -0.35596  -0.34617
 Alpha virt. eigenvalues --   -0.05138  -0.03388   0.00098   0.01837   0.08104
 Alpha virt. eigenvalues --    0.11156   0.13239   0.19298   0.28489   0.31104
 Alpha virt. eigenvalues --    0.33736   0.40495   0.45615   0.49768   0.51887
 Alpha virt. eigenvalues --    0.65105   0.67230   0.69187   0.74667   0.75451
 Alpha virt. eigenvalues --    0.79705   0.86117   0.87225   0.92758   0.96596
 Alpha virt. eigenvalues --    0.97068   0.99725   1.01086   1.03934   1.07789
 Alpha virt. eigenvalues --    1.09187   1.10040   1.13337   1.16873   1.18397
 Alpha virt. eigenvalues --    1.23795   1.26915   1.28707   1.32381   1.34620
 Alpha virt. eigenvalues --    1.35384   1.35789   1.38018   1.52630   1.54775
 Alpha virt. eigenvalues --    1.56835   1.60306   1.68710   1.70802   1.72919
 Alpha virt. eigenvalues --    1.74724   1.76509   1.78137   1.78655   1.79666
 Alpha virt. eigenvalues --    1.81183   1.82582   1.82998   1.86405   1.90041
 Alpha virt. eigenvalues --    1.91594   1.94063   1.96725   1.98935   2.00915
 Alpha virt. eigenvalues --    2.06688   2.09639   2.10383   2.14468   2.16362
 Alpha virt. eigenvalues --    2.18862   2.29469   2.35622   2.55586   2.61100
 Alpha virt. eigenvalues --    2.64185   2.72380   2.81810   2.84982   2.99934
 Alpha virt. eigenvalues --    3.02686   3.54368   3.84801   3.85591   3.94072
 Alpha virt. eigenvalues --    4.21423   4.27525   4.34773   5.04594
     Molecular Orbital Coefficients:
                           1         2         3         4         5
                           O         O         O         O         O
     Eigenvalues --   -89.17306 -24.79041 -24.75972 -24.75544 -19.23300
   1 1   C  1S         -0.00002  -0.00003  -0.00003  -0.00002  -0.00002
   2        2S         -0.00007   0.00009  -0.00017  -0.00018  -0.00016
   3        2PX        -0.00005   0.00032   0.00027   0.00031  -0.00004
   4        2PY        -0.00000   0.00052   0.00009  -0.00037   0.00000
   5        2PZ        -0.00001  -0.00035   0.00047  -0.00017  -0.00001
   6        3S          0.00078   0.00038   0.00024   0.00001   0.00098
   7        3PX        -0.00036  -0.00048  -0.00044  -0.00037  -0.00047
   8        3PY        -0.00014  -0.00022  -0.00012   0.00002  -0.00064
   9        3PZ         0.00007   0.00007   0.00010   0.00005   0.00021
  10        4XX        -0.00004   0.00006   0.00013   0.00023   0.00005
  11        4YY        -0.00000   0.00029   0.00006   0.00046  -0.00002
  12        4ZZ        -0.00000   0.00015   0.00058   0.00014  -0.00003
  13        4XY        -0.00002   0.00015   0.00002  -0.00031  -0.00004
  14        4XZ         0.00001  -0.00011   0.00027  -0.00013  -0.00001
  15        4YZ        -0.00000  -0.00023   0.00007   0.00017   0.00003
  16 2   F  1S          0.00002   0.00004   0.99303  -0.00015  -0.00004
  17        2S          0.00012   0.00008   0.01974   0.00005  -0.00019
  18        2PX        -0.00001  -0.00000  -0.00027   0.00001   0.00004
  19        2PY        -0.00001   0.00001  -0.00006  -0.00002  -0.00001
  20        2PZ         0.00000  -0.00002  -0.00065  -0.00002   0.00000
  21        3S         -0.00044  -0.00012   0.01460  -0.00001   0.00054
  22        3PX         0.00013   0.00002   0.00014  -0.00004  -0.00012
  23        3PY         0.00004  -0.00005   0.00005   0.00011   0.00010
  24        3PZ         0.00006   0.00014   0.00045   0.00009  -0.00000
  25        4XX         0.00007   0.00006  -0.00795   0.00004  -0.00011
  26        4YY         0.00006   0.00001  -0.00793  -0.00003  -0.00019
  27        4ZZ         0.00008  -0.00007  -0.00829  -0.00005  -0.00016
  28        4XY        -0.00000  -0.00001  -0.00002   0.00003  -0.00001
  29        4XZ        -0.00003  -0.00002  -0.00018   0.00001  -0.00000
  30        4YZ        -0.00001   0.00007  -0.00005  -0.00009  -0.00003
  31 3   F  1S          0.00001   0.99301  -0.00004  -0.00002  -0.00005
  32        2S          0.00008   0.01973   0.00004   0.00007  -0.00029
  33        2PX        -0.00002  -0.00028  -0.00000   0.00000   0.00002
  34        2PY         0.00000  -0.00060  -0.00001  -0.00003   0.00001
  35        2PZ        -0.00000   0.00043   0.00003   0.00000  -0.00001
  36        3S         -0.00028   0.01475   0.00006  -0.00004   0.00103
  37        3PX         0.00013   0.00017   0.00001  -0.00001  -0.00010
  38        3PY         0.00004   0.00043   0.00002   0.00014  -0.00008
  39        3PZ        -0.00001  -0.00030  -0.00014   0.00000   0.00011
  40        4XX         0.00004  -0.00798   0.00003   0.00004  -0.00018
  41        4YY         0.00005  -0.00824   0.00001  -0.00011  -0.00021
  42        4ZZ         0.00005  -0.00809  -0.00011   0.00004  -0.00020
  43        4XY        -0.00003  -0.00015  -0.00003   0.00002   0.00000
  44        4XZ         0.00002   0.00011  -0.00001   0.00003  -0.00002
  45        4YZ        -0.00001   0.00023   0.00005   0.00001  -0.00002
  46 4   F  1S          0.00002   0.00003   0.00015   0.99303   0.00004
  47        2S          0.00013   0.00011   0.00007   0.01971   0.00024
  48        2PX        -0.00002  -0.00001  -0.00000  -0.00037  -0.00003
  49        2PY        -0.00001   0.00002   0.00001   0.00053   0.00001
  50        2PZ         0.00000  -0.00000   0.00003   0.00021   0.00002
  51        3S         -0.00048  -0.00022  -0.00007   0.01471  -0.00084
  52        3PX         0.00015   0.00005   0.00002   0.00019   0.00019
  53        3PY        -0.00003  -0.00016  -0.00004  -0.00032  -0.00009
  54        3PZ        -0.00004   0.00002  -0.00016  -0.00012  -0.00011
  55        4XX         0.00007   0.00007   0.00004  -0.00801   0.00015
  56        4YY         0.00010  -0.00008   0.00002  -0.00819   0.00017
  57        4ZZ         0.00007   0.00007  -0.00008  -0.00797   0.00015
  58        4XY         0.00002   0.00003   0.00002   0.00020   0.00003
  59        4XZ         0.00001   0.00002   0.00000   0.00008   0.00002
  60        4YZ         0.00000   0.00004  -0.00009  -0.00012  -0.00002
  61 5   S  1S          0.99612   0.00000   0.00000   0.00000   0.00000
  62        2S          0.01486   0.00005   0.00005   0.00003   0.00007
  63        2PX         0.00001  -0.00001  -0.00001  -0.00001   0.00000
  64        2PY         0.00002  -0.00000  -0.00000  -0.00000  -0.00007
  65        2PZ         0.00001  -0.00000   0.00000   0.00000  -0.00003
  66        3S         -0.02413   0.00021   0.00018   0.00007  -0.00003
  67        3PX        -0.00008   0.00009   0.00009   0.00012   0.00011
  68        3PY        -0.00007   0.00004   0.00004   0.00003   0.00017
  69        3PZ        -0.00002   0.00002  -0.00003  -0.00002   0.00005
  70        4S          0.00156  -0.00142  -0.00130  -0.00100  -0.00329
  71        4PX         0.00004  -0.00044  -0.00051  -0.00048  -0.00030
  72        4PY        -0.00005  -0.00064  -0.00020   0.00025  -0.00090
  73        4PZ        -0.00007   0.00035  -0.00080   0.00007  -0.00115
  74        5XX         0.00848   0.00003   0.00004   0.00003   0.00018
  75        5YY         0.00855   0.00005   0.00005   0.00005   0.00034
  76        5ZZ         0.00863   0.00002   0.00004   0.00002   0.00014
  77        5XY         0.00002   0.00001   0.00001   0.00000  -0.00004
  78        5XZ         0.00000  -0.00001   0.00000  -0.00001  -0.00002
  79        5YZ        -0.00004  -0.00001   0.00001   0.00002   0.00013
  80 6   O  1S          0.00001  -0.00004   0.00002  -0.00002  -0.00006
  81        2S          0.00001  -0.00018   0.00008  -0.00010  -0.00004
  82        2PX        -0.00003  -0.00003  -0.00001  -0.00003   0.00001
  83        2PY        -0.00000  -0.00002  -0.00001   0.00001  -0.00003
  84        2PZ        -0.00011  -0.00001   0.00000  -0.00001   0.00000
  85        3S          0.00039   0.00090  -0.00041   0.00050   0.00034
  86        3PX         0.00007   0.00020   0.00003   0.00018   0.00003
  87        3PY         0.00001   0.00015   0.00005  -0.00007   0.00017
  88        3PZ         0.00029   0.00016  -0.00002   0.00010   0.00017
  89        4XX         0.00000  -0.00011   0.00006  -0.00007  -0.00001
  90        4YY         0.00006  -0.00012   0.00006  -0.00008  -0.00006
  91        4ZZ        -0.00017  -0.00012   0.00006  -0.00007  -0.00003
  92        4XY        -0.00001   0.00001   0.00000  -0.00001   0.00003
  93        4XZ        -0.00012   0.00002   0.00000   0.00002   0.00001
  94        4YZ        -0.00001   0.00002   0.00001  -0.00001  -0.00003
  95 7   O  1S          0.00001   0.00001  -0.00004  -0.00003  -0.00001
  96        2S         -0.00007   0.00003  -0.00018  -0.00013  -0.00023
  97        2PX        -0.00004  -0.00001  -0.00001  -0.00003  -0.00002
  98        2PY        -0.00013  -0.00001  -0.00002   0.00000  -0.00001
  99        2PZ         0.00015  -0.00000  -0.00001   0.00002  -0.00003
 100        3S          0.00049  -0.00019   0.00097   0.00065   0.00163
 101        3PX         0.00004   0.00005   0.00016   0.00018   0.00021
 102        3PY         0.00022   0.00007   0.00022   0.00003   0.00032
 103        3PZ        -0.00023   0.00002   0.00000  -0.00015  -0.00005
 104        4XX         0.00004   0.00003  -0.00010  -0.00009  -0.00012
 105        4YY        -0.00003   0.00004  -0.00008  -0.00010  -0.00024
 106        4ZZ        -0.00006   0.00003  -0.00013  -0.00008  -0.00016
 107        4XY        -0.00006   0.00000   0.00002   0.00001   0.00005
 108        4XZ         0.00006   0.00000  -0.00001  -0.00002   0.00002
 109        4YZ         0.00013   0.00000   0.00001  -0.00000  -0.00001
 110 8   O  1S         -0.00002  -0.00003  -0.00003   0.00000   0.99284
 111        2S         -0.00003  -0.00014  -0.00015   0.00000   0.02572
 112        2PX         0.00003  -0.00001  -0.00001  -0.00001  -0.00016
 113        2PY        -0.00003   0.00002   0.00002  -0.00001  -0.00017
 114        2PZ         0.00000   0.00001  -0.00001  -0.00000  -0.00082
 115        3S          0.00053   0.00068   0.00076   0.00000   0.01143
 116        3PX         0.00002   0.00015   0.00014   0.00007   0.00032
 117        3PY        -0.00024  -0.00017  -0.00021   0.00000  -0.00057
 118        3PZ        -0.00017  -0.00013   0.00004   0.00000  -0.00002
 119        4XX        -0.00006  -0.00007  -0.00009   0.00001  -0.00790
 120        4YY        -0.00010  -0.00009  -0.00008  -0.00000  -0.00790
 121        4ZZ        -0.00004  -0.00006  -0.00011   0.00000  -0.00794
 122        4XY         0.00001  -0.00002  -0.00003  -0.00001  -0.00003
 123        4XZ         0.00003  -0.00002   0.00000  -0.00000  -0.00001
 124        4YZ        -0.00004   0.00001  -0.00002  -0.00000  -0.00001
 125 9   H  1S         -0.00006  -0.00002  -0.00001   0.00001   0.00026
 126        2S         -0.00009   0.00010   0.00000  -0.00002  -0.00074
                           6         7         8         9        10
                           O         O         O         O         O
     Eigenvalues --   -19.21479 -19.19857 -10.50278  -8.20089  -6.16561
   1 1   C  1S         -0.00001  -0.00001   0.99340   0.00001  -0.00002
   2        2S         -0.00006  -0.00008   0.04651   0.00073  -0.00018
   3        2PX        -0.00003  -0.00001   0.00060   0.00012   0.00007
   4        2PY         0.00003  -0.00000   0.00040  -0.00005  -0.00015
   5        2PZ        -0.00004   0.00005  -0.00018   0.00002  -0.00002
   6        3S          0.00038   0.00045  -0.01282  -0.00171   0.00018
   7        3PX        -0.00022  -0.00036   0.00283   0.00170   0.00026
   8        3PY        -0.00025   0.00033   0.00056   0.00111  -0.00180
   9        3PZ         0.00082  -0.00065  -0.00040  -0.00069   0.00031
  10        4XX         0.00002   0.00004  -0.00826  -0.00069  -0.00005
  11        4YY        -0.00003   0.00000  -0.00771  -0.00013   0.00015
  12        4ZZ         0.00002  -0.00002  -0.00780  -0.00017  -0.00004
  13        4XY        -0.00000   0.00002   0.00009  -0.00006   0.00034
  14        4XZ         0.00003  -0.00001  -0.00009  -0.00003   0.00006
  15        4YZ         0.00002  -0.00003  -0.00022  -0.00001   0.00013
  16 2   F  1S          0.00000   0.00001  -0.00012  -0.00017   0.00002
  17        2S          0.00003   0.00002  -0.00040  -0.00094   0.00013
  18        2PX         0.00003  -0.00004  -0.00001   0.00020   0.00000
  19        2PY        -0.00001   0.00000   0.00000   0.00006  -0.00013
  20        2PZ        -0.00002   0.00001  -0.00001   0.00002  -0.00002
  21        3S         -0.00025   0.00004   0.00202   0.00306  -0.00048
  22        3PX        -0.00007   0.00012  -0.00004  -0.00102  -0.00003
  23        3PY         0.00005  -0.00005  -0.00002  -0.00035   0.00062
  24        3PZ         0.00016  -0.00009   0.00032  -0.00029   0.00010
  25        4XX         0.00004   0.00002  -0.00026  -0.00050   0.00013
  26        4YY        -0.00002   0.00006  -0.00011  -0.00067   0.00007
  27        4ZZ        -0.00003   0.00006  -0.00090  -0.00069   0.00008
  28        4XY         0.00001  -0.00000  -0.00003   0.00006  -0.00013
  29        4XZ        -0.00002  -0.00000  -0.00019   0.00019   0.00000
  30        4YZ        -0.00002   0.00002  -0.00009   0.00008  -0.00009
  31 3   F  1S          0.00000   0.00000  -0.00008  -0.00009  -0.00010
  32        2S         -0.00001   0.00002  -0.00008  -0.00048  -0.00059
  33        2PX        -0.00004   0.00002  -0.00000   0.00021   0.00005
  34        2PY         0.00001  -0.00001  -0.00003   0.00001  -0.00004
  35        2PZ         0.00001  -0.00000   0.00001   0.00001  -0.00008
  36        3S          0.00017  -0.00023   0.00070   0.00123   0.00218
  37        3PX         0.00009  -0.00002   0.00011  -0.00092  -0.00039
  38        3PY        -0.00011   0.00011   0.00076  -0.00010   0.00006
  39        3PZ        -0.00002  -0.00002  -0.00050  -0.00002   0.00040
  40        4XX        -0.00000   0.00002  -0.00002  -0.00023  -0.00031
  41        4YY         0.00005  -0.00004  -0.00053  -0.00039  -0.00045
  42        4ZZ         0.00001  -0.00001  -0.00020  -0.00043  -0.00038
  43        4XY        -0.00000  -0.00001  -0.00021   0.00016  -0.00000
  44        4XZ         0.00000   0.00002   0.00014  -0.00009  -0.00010
  45        4YZ         0.00001  -0.00001   0.00055  -0.00002   0.00002
  46 4   F  1S         -0.00004  -0.00003  -0.00012  -0.00014   0.00018
  47        2S         -0.00019  -0.00015  -0.00041  -0.00078   0.00105
  48        2PX         0.00003   0.00002   0.00001   0.00018  -0.00011
  49        2PY        -0.00001   0.00000   0.00002   0.00003  -0.00003
  50        2PZ         0.00001  -0.00002  -0.00000  -0.00003   0.00003
  51        3S          0.00058   0.00049   0.00201   0.00254  -0.00366
  52        3PX        -0.00010  -0.00006  -0.00006  -0.00097   0.00076
  53        3PY         0.00007  -0.00000  -0.00035   0.00002  -0.00010
  54        3PZ        -0.00008   0.00010  -0.00006   0.00025  -0.00030
  55        4XX        -0.00012  -0.00010  -0.00034  -0.00034   0.00054
  56        4YY        -0.00013  -0.00014  -0.00077  -0.00064   0.00080
  57        4ZZ        -0.00018  -0.00011  -0.00024  -0.00053   0.00069
  58        4XY        -0.00000   0.00000   0.00028  -0.00012   0.00002
  59        4XZ        -0.00001   0.00000   0.00011  -0.00009   0.00006
  60        4YZ        -0.00003   0.00004  -0.00028   0.00001   0.00001
  61 5   S  1S          0.00001   0.00001  -0.00001  -0.27989   0.00027
  62        2S         -0.00008  -0.00005  -0.00020   1.02293  -0.00124
  63        2PX        -0.00005  -0.00001   0.00000   0.00021  -0.21324
  64        2PY        -0.00008  -0.00001   0.00001   0.00096   0.95002
  65        2PZ         0.00008   0.00001  -0.00001   0.00140   0.18510
  66        3S          0.00090   0.00073  -0.00067   0.07316  -0.00122
  67        3PX         0.00014   0.00001   0.00010  -0.00035  -0.00622
  68        3PY         0.00016   0.00007  -0.00010  -0.00046   0.02958
  69        3PZ        -0.00011  -0.00024   0.00002   0.00051   0.00493
  70        4S         -0.00346  -0.00312   0.00765  -0.00806   0.00081
  71        4PX         0.00035   0.00067   0.00304  -0.00170   0.00177
  72        4PY         0.00130  -0.00061   0.00145  -0.00134  -0.00481
  73        4PZ        -0.00243   0.00229   0.00032   0.00055  -0.00169
  74        5XX        -0.00027  -0.00013  -0.00011  -0.01538  -0.00014
  75        5YY        -0.00039  -0.00017  -0.00021  -0.01513   0.00080
  76        5ZZ        -0.00044  -0.00007  -0.00005  -0.01454  -0.00057
  77        5XY        -0.00008  -0.00003  -0.00006   0.00018  -0.00086
  78        5XZ         0.00006   0.00005   0.00002   0.00009  -0.00014
  79        5YZ         0.00019   0.00001  -0.00004  -0.00049   0.00140
  80 6   O  1S         -0.00017   0.99275   0.00006  -0.00009   0.00007
  81        2S          0.00009   0.02569   0.00029   0.00041   0.00006
  82        2PX         0.00004   0.00040   0.00004  -0.00000   0.00004
  83        2PY         0.00005   0.00001   0.00004  -0.00007  -0.00002
  84        2PZ        -0.00001   0.00089  -0.00001   0.00030  -0.00007
  85        3S         -0.00049   0.01256  -0.00164  -0.00313  -0.00024
  86        3PX        -0.00019   0.00026  -0.00058  -0.00059   0.00014
  87        3PY        -0.00027   0.00015  -0.00028   0.00028  -0.00072
  88        3PZ         0.00018   0.00057  -0.00035  -0.00292   0.00048
  89        4XX         0.00008  -0.00808   0.00018   0.00027   0.00015
  90        4YY         0.00005  -0.00808   0.00010   0.00022   0.00002
  91        4ZZ         0.00008  -0.00806   0.00015   0.00017   0.00002
  92        4XY        -0.00002   0.00001  -0.00000   0.00001  -0.00026
  93        4XZ         0.00001   0.00001  -0.00007   0.00004   0.00016
  94        4YZ         0.00003   0.00002  -0.00005   0.00001  -0.00065
  95 7   O  1S          0.99264   0.00021   0.00005  -0.00023   0.00039
  96        2S          0.02568   0.00008   0.00025   0.00092  -0.00044
  97        2PX         0.00040   0.00005   0.00002   0.00008  -0.00010
  98        2PY         0.00080   0.00003   0.00002   0.00044  -0.00038
  99        2PZ        -0.00095   0.00004   0.00003  -0.00059   0.00042
 100        3S          0.01394  -0.00030  -0.00163  -0.00572   0.00292
 101        3PX         0.00030  -0.00022  -0.00048  -0.00047   0.00072
 102        3PY         0.00070  -0.00003  -0.00046  -0.00230   0.00103
 103        3PZ        -0.00053  -0.00036   0.00006   0.00290  -0.00215
 104        4XX        -0.00835   0.00005   0.00019   0.00034   0.00005
 105        4YY        -0.00820   0.00007   0.00003   0.00043  -0.00062
 106        4ZZ        -0.00820   0.00005   0.00014   0.00051   0.00014
 107        4XY         0.00009  -0.00003  -0.00002   0.00012  -0.00010
 108        4XZ        -0.00008  -0.00002   0.00003  -0.00015  -0.00008
 109        4YZ        -0.00019  -0.00003  -0.00005  -0.00026   0.00037
 110 8   O  1S         -0.00010   0.00001   0.00008   0.00002   0.00007
 111        2S         -0.00013  -0.00013   0.00038   0.00032   0.00111
 112        2PX         0.00001   0.00001   0.00001  -0.00015  -0.00006
 113        2PY         0.00003  -0.00000  -0.00004   0.00009   0.00003
 114        2PZ        -0.00005   0.00005   0.00001  -0.00004  -0.00013
 115        3S          0.00090   0.00083  -0.00217  -0.00133  -0.00361
 116        3PX        -0.00000  -0.00001  -0.00040   0.00012  -0.00093
 117        3PY        -0.00028  -0.00014   0.00063   0.00152   0.00321
 118        3PZ         0.00023  -0.00038   0.00017   0.00086   0.00197
 119        4XX        -0.00008  -0.00008   0.00030   0.00025   0.00064
 120        4YY        -0.00015  -0.00010   0.00017  -0.00047  -0.00080
 121        4ZZ        -0.00014  -0.00011   0.00014   0.00018   0.00044
 122        4XY        -0.00001   0.00001   0.00004   0.00027   0.00076
 123        4XZ         0.00004  -0.00004   0.00001   0.00003   0.00024
 124        4YZ         0.00001   0.00000   0.00001  -0.00030  -0.00078
 125 9   H  1S          0.00002  -0.00005   0.00008   0.00012   0.00028
 126        2S         -0.00009   0.00008  -0.00028   0.00073   0.00082
                          11        12        13        14        15
                           O         O         O         O         O
     Eigenvalues --    -6.16466  -6.16395  -1.32698  -1.24904  -1.22160
   1 1   C  1S         -0.00001   0.00012  -0.08936  -0.02488  -0.00335
   2        2S         -0.00087   0.00186   0.18392   0.05194   0.00701
   3        2PX        -0.00008   0.00006   0.05270   0.01882   0.01326
   4        2PY         0.00004  -0.00001   0.05070  -0.09289  -0.08139
   5        2PZ        -0.00009  -0.00001  -0.02962   0.09223  -0.08843
   6        3S          0.00205  -0.00579   0.01755   0.01382   0.00262
   7        3PX        -0.00199   0.00346  -0.01805  -0.00672  -0.00074
   8        3PY         0.00044   0.00139  -0.00400   0.00291  -0.00045
   9        3PZ        -0.00262  -0.00231   0.00093  -0.00515   0.00107
  10        4XX         0.00086  -0.00114  -0.00907   0.00083   0.00239
  11        4YY         0.00021   0.00001   0.00298  -0.00889   0.01161
  12        4ZZ        -0.00002  -0.00015  -0.00178   0.00646  -0.01424
  13        4XY         0.00007  -0.00023   0.00535  -0.01084  -0.01100
  14        4XZ         0.00029   0.00019  -0.00372   0.00897  -0.01027
  15        4YZ        -0.00008   0.00002  -0.00977   0.01690   0.00555
  16 2   F  1S         -0.00002  -0.00031  -0.08337  -0.14823   0.14459
  17        2S         -0.00016  -0.00182   0.18014   0.33059  -0.32518
  18        2PX        -0.00014   0.00027  -0.01420  -0.02204   0.02172
  19        2PY         0.00002   0.00008  -0.00231  -0.01346  -0.00198
  20        2PZ        -0.00000   0.00006  -0.04554  -0.05215   0.04168
  21        3S          0.00101   0.00636   0.18513   0.31975  -0.31115
  22        3PX         0.00049  -0.00170  -0.00813  -0.01291   0.01358
  23        3PY        -0.00016  -0.00051  -0.00117  -0.00912  -0.00184
  24        3PZ        -0.00021  -0.00084  -0.03451  -0.03177   0.02431
  25        4XX        -0.00012  -0.00097   0.00136   0.00604  -0.00673
  26        4YY         0.00002  -0.00117  -0.00034   0.00394  -0.00425
  27        4ZZ        -0.00005  -0.00125   0.01273   0.01465  -0.01326
  28        4XY         0.00001   0.00009   0.00044   0.00099  -0.00051
  29        4XZ        -0.00010   0.00032   0.00500   0.00535  -0.00491
  30        4YZ         0.00002   0.00009   0.00108   0.00260  -0.00014
  31 3   F  1S          0.00024  -0.00007  -0.17611   0.13375   0.01389
  32        2S          0.00142  -0.00039   0.39198  -0.30440  -0.03192
  33        2PX        -0.00021   0.00022  -0.02973   0.02176   0.00335
  34        2PY        -0.00011  -0.00001  -0.07250   0.03422  -0.00494
  35        2PZ        -0.00006  -0.00007   0.05165  -0.02199  -0.01183
  36        3S         -0.00491   0.00093   0.37073  -0.27954  -0.02873
  37        3PX         0.00128  -0.00107  -0.01435   0.01243   0.00210
  38        3PY         0.00085  -0.00003  -0.04214   0.01459  -0.00421
  39        3PZ         0.00009   0.00039   0.03049  -0.00811  -0.00755
  40        4XX         0.00077  -0.00017   0.00642  -0.00731  -0.00090
  41        4YY         0.00088  -0.00031   0.01617  -0.00944   0.00071
  42        4ZZ         0.00104  -0.00027   0.01025  -0.00694  -0.00245
  43        4XY        -0.00025   0.00015   0.00573  -0.00304  -0.00020
  44        4XZ         0.00008  -0.00016  -0.00401   0.00195   0.00060
  45        4YZ        -0.00003  -0.00008  -0.01010   0.00278   0.00089
  46 4   F  1S          0.00014  -0.00018  -0.07790  -0.10763  -0.18034
  47        2S          0.00077  -0.00103   0.16743   0.23926   0.40444
  48        2PX        -0.00018   0.00024  -0.01934  -0.02206  -0.03364
  49        2PY         0.00004   0.00003   0.03824   0.03005   0.04611
  50        2PZ        -0.00011  -0.00012   0.01286   0.02170   0.01356
  51        3S         -0.00250   0.00340   0.17448   0.23294   0.38918
  52        3PX         0.00099  -0.00134  -0.01268  -0.01349  -0.02109
  53        3PY        -0.00031   0.00003   0.02992   0.01853   0.02779
  54        3PZ         0.00053   0.00071   0.00994   0.01485   0.00734
  55        4XX         0.00034  -0.00047   0.00256   0.00548   0.00998
  56        4YY         0.00056  -0.00086   0.00912   0.00806   0.01410
  57        4ZZ         0.00063  -0.00068   0.00062   0.00416   0.00595
  58        4XY         0.00017  -0.00015  -0.00609  -0.00455  -0.00691
  59        4XZ        -0.00005  -0.00019  -0.00231  -0.00246  -0.00261
  60        4YZ         0.00009   0.00006   0.00420   0.00400   0.00345
  61 5   S  1S          0.00030   0.00032   0.00472   0.00589   0.00070
  62        2S         -0.00099  -0.00137  -0.02235  -0.02661  -0.00306
  63        2PX        -0.50557   0.82529  -0.00644  -0.00102  -0.00039
  64        2PY        -0.27046   0.07955  -0.00028   0.00564   0.00218
  65        2PZ         0.80786   0.54268  -0.00075  -0.00597   0.00247
  66        3S          0.00076   0.00051   0.03537   0.05247   0.00667
  67        3PX        -0.01581   0.02604   0.01503   0.00359   0.00077
  68        3PY        -0.00983   0.00234   0.00093  -0.01100  -0.00446
  69        3PZ         0.02714   0.01807   0.00144   0.01270  -0.00544
  70        4S          0.00357  -0.00082   0.01083  -0.00200  -0.00055
  71        4PX         0.00286  -0.00365   0.00353   0.00404   0.00219
  72        4PY         0.00064  -0.00071   0.00550  -0.01124  -0.00785
  73        4PZ        -0.00123  -0.00123  -0.00328   0.01344  -0.01094
  74        5XX        -0.00104   0.00059   0.00663   0.00029   0.00072
  75        5YY         0.00112  -0.00036  -0.00218  -0.00240  -0.00083
  76        5ZZ         0.00017  -0.00190  -0.00132   0.00023  -0.00024
  77        5XY         0.00024   0.00012   0.00296  -0.00024  -0.00213
  78        5XZ        -0.00122  -0.00077  -0.00062   0.00118  -0.00226
  79        5YZ        -0.00125  -0.00018  -0.00157  -0.00338  -0.00049
  80 6   O  1S          0.00022   0.00018  -0.00385  -0.00570  -0.00174
  81        2S         -0.00036  -0.00111   0.00991   0.00970   0.00556
  82        2PX        -0.00003  -0.00018   0.00277   0.00235   0.00128
  83        2PY        -0.00005  -0.00003   0.00048  -0.00052  -0.00041
  84        2PZ        -0.00017  -0.00037   0.00443   0.00577   0.00178
  85        3S          0.00302   0.00673   0.00118   0.02172  -0.00412
  86        3PX         0.00148   0.00157  -0.00064   0.00112  -0.00054
  87        3PY         0.00051   0.00019  -0.00096   0.00225   0.00173
  88        3PZ         0.00210   0.00456   0.00075   0.00430  -0.00016
  89        4XX         0.00021  -0.00079   0.00051  -0.00103   0.00060
  90        4YY        -0.00003  -0.00061   0.00040  -0.00114   0.00044
  91        4ZZ        -0.00037  -0.00013   0.00165   0.00011   0.00120
  92        4XY         0.00006  -0.00003  -0.00003  -0.00006   0.00004
  93        4XZ         0.00038  -0.00018   0.00051   0.00069   0.00013
  94        4YZ         0.00018  -0.00004  -0.00011   0.00027   0.00018
  95 7   O  1S         -0.00064  -0.00016  -0.00627  -0.01475  -0.00090
  96        2S          0.00176  -0.00009   0.01407   0.03489   0.00175
  97        2PX         0.00041   0.00006   0.00322   0.00582   0.00032
  98        2PY         0.00093   0.00014   0.00512   0.01066  -0.00003
  99        2PZ        -0.00092  -0.00003  -0.00529  -0.01158  -0.00153
 100        3S         -0.01026  -0.00008   0.00961   0.01196   0.00350
 101        3PX        -0.00163  -0.00081  -0.00057   0.00111  -0.00080
 102        3PY        -0.00425  -0.00039   0.00029   0.00214   0.00237
 103        3PZ         0.00369  -0.00057  -0.00116  -0.00192   0.00128
 104        4XX         0.00058  -0.00037  -0.00002   0.00068  -0.00022
 105        4YY         0.00070  -0.00022   0.00054   0.00156   0.00026
 106        4ZZ         0.00117   0.00025   0.00079   0.00206  -0.00015
 107        4XY         0.00030  -0.00022   0.00038   0.00077  -0.00010
 108        4XZ        -0.00040   0.00019  -0.00047  -0.00069  -0.00010
 109        4YZ        -0.00058  -0.00031  -0.00078  -0.00208  -0.00017
 110 8   O  1S          0.00006  -0.00013  -0.00300  -0.00364   0.00073
 111        2S          0.00041  -0.00049   0.00685   0.00709  -0.00257
 112        2PX         0.00009  -0.00001   0.00149   0.00088  -0.00031
 113        2PY        -0.00009  -0.00004  -0.00230  -0.00302   0.00043
 114        2PZ         0.00007   0.00012  -0.00153  -0.00101  -0.00002
 115        3S         -0.00178   0.00212   0.00281   0.01041   0.00395
 116        3PX        -0.00064  -0.00024  -0.00006   0.00014  -0.00139
 117        3PY         0.00152   0.00016   0.00003  -0.00254  -0.00208
 118        3PZ        -0.00035  -0.00087  -0.00016  -0.00296   0.00048
 119        4XX         0.00033  -0.00061   0.00003  -0.00039  -0.00049
 120        4YY        -0.00054  -0.00037   0.00059   0.00031   0.00005
 121        4ZZ         0.00063  -0.00018   0.00002   0.00015  -0.00018
 122        4XY        -0.00001   0.00042  -0.00014  -0.00037   0.00013
 123        4XZ        -0.00021   0.00010  -0.00002   0.00010   0.00001
 124        4YZ         0.00018   0.00034   0.00023   0.00073  -0.00009
 125 9   H  1S         -0.00008  -0.00020   0.00083   0.00041  -0.00029
 126        2S         -0.00042  -0.00085  -0.00090   0.00221   0.00059
                          16        17        18        19        20
                           O         O         O         O         O
     Eigenvalues --    -1.20955  -1.07692  -1.01864  -0.79371  -0.68194
   1 1   C  1S         -0.00297  -0.00480  -0.00258  -0.13450   0.08190
   2        2S         -0.00405   0.00544   0.00410   0.31104  -0.20311
   3        2PX        -0.03277  -0.01358  -0.00753  -0.15317  -0.22746
   4        2PY         0.00229  -0.00053   0.00272  -0.01513  -0.06873
   5        2PZ        -0.00600  -0.00230   0.00249  -0.00439   0.03327
   6        3S          0.04254   0.02316   0.00965   0.23634  -0.11881
   7        3PX        -0.01941  -0.01003  -0.00447  -0.08896  -0.00843
   8        3PY        -0.00102   0.00234   0.00637  -0.01577  -0.00640
   9        3PZ        -0.00147  -0.00459   0.00295   0.00352   0.00569
  10        4XX         0.00654   0.00202   0.00068   0.00651   0.01270
  11        4YY        -0.00150  -0.00162  -0.00005  -0.01113  -0.00018
  12        4ZZ        -0.00294  -0.00074  -0.00112  -0.01193   0.00207
  13        4XY         0.00227  -0.00015  -0.00148   0.00335  -0.00270
  14        4XZ        -0.00075   0.00089  -0.00089  -0.00022   0.00209
  15        4YZ        -0.00154   0.00071   0.00042  -0.00083   0.00447
  16 2   F  1S          0.02281  -0.00048   0.00359   0.04762  -0.03594
  17        2S         -0.05227   0.00331  -0.01031  -0.10430   0.07834
  18        2PX        -0.00019  -0.00051  -0.00215  -0.07140  -0.00449
  19        2PY         0.00096   0.00047   0.00070  -0.01459   0.00167
  20        2PZ         0.00755  -0.00016  -0.00041  -0.09123   0.18493
  21        3S         -0.04968  -0.00362  -0.00594  -0.14797   0.11453
  22        3PX         0.00018   0.00236  -0.00309  -0.03764  -0.00674
  23        3PY         0.00012   0.00106   0.00033  -0.00700   0.00053
  24        3PZ         0.00618  -0.00008   0.00032  -0.05377   0.11378
  25        4XX        -0.00072   0.00062  -0.00057   0.00308   0.00379
  26        4YY        -0.00162   0.00092  -0.00151  -0.00196   0.00189
  27        4ZZ        -0.00326   0.00132  -0.00152   0.00807  -0.01508
  28        4XY         0.00027  -0.00047  -0.00032   0.00104   0.00046
  29        4XZ        -0.00069  -0.00004   0.00026   0.00669  -0.00090
  30        4YZ        -0.00020   0.00007   0.00014   0.00135  -0.00060
  31 3   F  1S          0.00030   0.00591   0.00252   0.05180  -0.05490
  32        2S          0.00196  -0.01582  -0.00711  -0.11546   0.11428
  33        2PX        -0.00327  -0.00300  -0.00211  -0.08589   0.01744
  34        2PY         0.00080  -0.00021   0.00059  -0.10024   0.25301
  35        2PZ        -0.00101  -0.00038   0.00117   0.06671  -0.18596
  36        3S         -0.00898  -0.01212  -0.00507  -0.15759   0.19394
  37        3PX         0.00070  -0.00371  -0.00250  -0.04429   0.00233
  38        3PY         0.00278   0.00059   0.00068  -0.05863   0.14660
  39        3PZ        -0.00186  -0.00131   0.00041   0.03967  -0.10862
  40        4XX         0.00145  -0.00049  -0.00024   0.00200   0.00253
  41        4YY         0.00054  -0.00189  -0.00091   0.00486  -0.01385
  42        4ZZ         0.00064  -0.00191  -0.00111   0.00061  -0.00738
  43        4XY        -0.00001   0.00048  -0.00012   0.00650  -0.00125
  44        4XZ         0.00004   0.00004  -0.00056  -0.00431   0.00102
  45        4YZ         0.00018   0.00004  -0.00004  -0.00624   0.01223
  46 4   F  1S          0.02121   0.00278  -0.00171   0.04582  -0.03712
  47        2S         -0.04696  -0.00553   0.00460  -0.10090   0.08005
  48        2PX         0.00096  -0.00135   0.00038  -0.08034   0.02901
  49        2PY        -0.00605  -0.00010  -0.00029   0.07021  -0.17249
  50        2PZ        -0.00305  -0.00055   0.00003   0.02991  -0.05509
  51        3S         -0.04952  -0.00878   0.00413  -0.14056   0.11988
  52        3PX         0.00243   0.00041   0.00145  -0.04347   0.01387
  53        3PY        -0.00540  -0.00027   0.00064   0.04305  -0.10709
  54        3PZ        -0.00169  -0.00116   0.00043   0.01715  -0.03417
  55        4XX        -0.00048   0.00034   0.00014   0.00453   0.00205
  56        4YY        -0.00185   0.00005   0.00058   0.00483  -0.01284
  57        4ZZ        -0.00092   0.00016   0.00059  -0.00130  -0.00037
  58        4XY         0.00107  -0.00011   0.00001  -0.00664   0.00435
  59        4XZ         0.00018   0.00050  -0.00007  -0.00273   0.00103
  60        4YZ        -0.00055   0.00012  -0.00001   0.00324  -0.00573
  61 5   S  1S          0.05184   0.01295  -0.00069   0.02840   0.03061
  62        2S         -0.23206  -0.05775   0.00427  -0.12318  -0.13585
  63        2PX         0.03282   0.01305  -0.00538  -0.11450  -0.04853
  64        2PY         0.04575  -0.06111  -0.06430  -0.03381  -0.03542
  65        2PZ        -0.03799   0.12565  -0.04976  -0.00034  -0.00724
  66        3S          0.48129   0.12108  -0.00760   0.30000   0.32856
  67        3PX        -0.06155  -0.02622   0.01300   0.28710   0.12291
  68        3PY        -0.09074   0.13725   0.14393   0.08555   0.08971
  69        3PZ         0.07997  -0.27892   0.11208  -0.00031   0.01744
  70        4S         -0.05033  -0.02220  -0.01153   0.01849   0.14375
  71        4PX         0.00221   0.00262  -0.00075  -0.01337   0.04702
  72        4PY        -0.00090  -0.02120  -0.01925   0.00012   0.02253
  73        4PZ        -0.00917   0.02775  -0.00851  -0.00740  -0.00098
  74        5XX        -0.03798   0.00279   0.00371   0.04520   0.00221
  75        5YY        -0.01017  -0.02611   0.03781  -0.01394  -0.00594
  76        5ZZ         0.01481   0.02409  -0.03212  -0.03315  -0.01682
  77        5XY         0.01376  -0.01721  -0.01719   0.00475  -0.00636
  78        5XZ        -0.00852   0.04590  -0.01897  -0.00157   0.00034
  79        5YZ        -0.04014   0.04437   0.02372   0.01336   0.01309
  80 6   O  1S         -0.06825  -0.15983   0.08231   0.05130   0.04805
  81        2S          0.14516   0.35132  -0.18676  -0.11667  -0.10449
  82        2PX         0.02610   0.05267  -0.02627   0.03393   0.04085
  83        2PY         0.00018   0.01153   0.01013   0.00611   0.01214
  84        2PZ         0.06886   0.11659  -0.05070  -0.00106   0.04259
  85        3S          0.14198   0.32970  -0.16544  -0.13682  -0.16318
  86        3PX         0.01328   0.01764  -0.00913   0.01778   0.01208
  87        3PY         0.00310   0.00840   0.00611   0.00086   0.00161
  88        3PZ         0.03196   0.03586  -0.01409   0.00097   0.01440
  89        4XX        -0.00203  -0.00295  -0.00005   0.00357   0.00393
  90        4YY        -0.00465  -0.00672   0.00224   0.00066   0.00169
  91        4ZZ         0.01143   0.00911  -0.00500   0.00023   0.00497
  92        4XY        -0.00046   0.00068   0.00043   0.00071   0.00076
  93        4XZ         0.00737   0.00930  -0.00397   0.00322   0.00319
  94        4YZ         0.00017   0.00217   0.00105   0.00055   0.00097
  95 7   O  1S         -0.15001   0.11417   0.02291   0.04960   0.05242
  96        2S          0.32853  -0.25596  -0.05233  -0.11697  -0.11886
  97        2PX         0.04410  -0.03329  -0.00635   0.04595   0.04641
  98        2PY         0.10298  -0.05984   0.00366   0.00728   0.05208
  99        2PZ        -0.11459   0.06011   0.02349   0.00538  -0.02604
 100        3S          0.25792  -0.20036  -0.04376  -0.11577  -0.16829
 101        3PX         0.01178  -0.00695  -0.00238   0.02409   0.01713
 102        3PY         0.02461  -0.00310   0.00508   0.00853   0.02054
 103        3PZ        -0.02530   0.00204   0.00800  -0.00392  -0.01113
 104        4XX        -0.00366   0.00080   0.00034   0.00220   0.00222
 105        4YY         0.00555  -0.00182   0.00196   0.00043   0.00385
 106        4ZZ         0.00898   0.00031  -0.00303  -0.00153   0.00136
 107        4XY         0.00592  -0.00418   0.00052   0.00429   0.00385
 108        4XZ        -0.00710   0.00334   0.00098  -0.00408  -0.00310
 109        4YZ        -0.01559   0.00453   0.00099  -0.00053  -0.00356
 110 8   O  1S         -0.04224  -0.05368  -0.19900   0.03655   0.03173
 111        2S          0.08470   0.11604   0.43839  -0.08450  -0.06779
 112        2PX         0.00556   0.00084  -0.00103   0.04821   0.06601
 113        2PY        -0.03049  -0.01505  -0.04097  -0.03786  -0.09302
 114        2PZ        -0.01758  -0.03146  -0.06940   0.00724   0.00334
 115        3S          0.10738   0.12811   0.47506  -0.09581  -0.11240
 116        3PX         0.00620   0.00370  -0.00030   0.02720   0.03242
 117        3PY        -0.02291  -0.01499  -0.02638  -0.01854  -0.04230
 118        3PZ        -0.01438  -0.01981  -0.05034   0.00727   0.00709
 119        4XX        -0.00337  -0.00196  -0.00522   0.00095   0.00190
 120        4YY         0.00351   0.00260   0.00534   0.00105   0.00539
 121        4ZZ        -0.00113   0.00092   0.00223  -0.00230  -0.00081
 122        4XY        -0.00464  -0.00360  -0.01156  -0.00061  -0.00056
 123        4XZ        -0.00033   0.00143   0.00595  -0.00446  -0.00541
 124        4YZ         0.00395   0.00150   0.00078   0.00321   0.00613
 125 9   H  1S          0.01130   0.02384   0.07945  -0.03458  -0.04978
 126        2S          0.00325   0.01102   0.00687  -0.01402  -0.02696
                          21        22        23        24        25
                           O         O         O         O         O
     Eigenvalues --    -0.61633  -0.60614  -0.59392  -0.55433  -0.51375
   1 1   C  1S          0.01948   0.00059   0.00780  -0.00865   0.00863
   2        2S         -0.04330  -0.00233  -0.01805   0.02244  -0.02327
   3        2PX         0.01168  -0.09118   0.18942  -0.03596   0.01622
   4        2PY         0.28985  -0.08626  -0.16487  -0.06037   0.02252
   5        2PZ        -0.15950  -0.29611  -0.10287  -0.03401  -0.02051
   6        3S         -0.05491  -0.00229  -0.01219   0.00736  -0.02169
   7        3PX         0.00786  -0.02512   0.06470  -0.01825   0.03281
   8        3PY         0.08098  -0.03855  -0.05615  -0.01903   0.00912
   9        3PZ        -0.03511  -0.09813  -0.03662  -0.01965  -0.00009
  10        4XX        -0.00286  -0.00058   0.00687  -0.00268   0.00446
  11        4YY         0.00662   0.00594  -0.00044  -0.00172  -0.00175
  12        4ZZ        -0.00224  -0.00650  -0.00274   0.00164  -0.00096
  13        4XY         0.01013  -0.00248  -0.00880  -0.01125   0.01154
  14        4XZ        -0.00655  -0.01064  -0.00723  -0.00612  -0.01251
  15        4YZ        -0.01413  -0.00554   0.00493   0.00009   0.00027
  16 2   F  1S         -0.02472  -0.05069  -0.01072  -0.00445  -0.00215
  17        2S          0.04619   0.09026   0.02041  -0.00164   0.00181
  18        2PX         0.07552   0.11819   0.14123  -0.04476  -0.00661
  19        2PY         0.14734  -0.00068  -0.07242  -0.04800   0.05951
  20        2PZ         0.13003   0.33215   0.03754   0.07125   0.05967
  21        3S          0.10253   0.22465   0.04621   0.04024   0.00721
  22        3PX         0.04422   0.06382   0.08765  -0.03728  -0.01070
  23        3PY         0.08962  -0.00232  -0.04360  -0.03431   0.04238
  24        3PZ         0.07378   0.18954   0.02023   0.04055   0.04089
  25        4XX        -0.00395  -0.00839  -0.00524  -0.00175   0.00161
  26        4YY        -0.00393  -0.00667  -0.00061  -0.00505  -0.00215
  27        4ZZ        -0.00724  -0.02126  -0.00017  -0.00849  -0.00432
  28        4XY        -0.00447   0.00042   0.00094   0.00112   0.00006
  29        4XZ        -0.00407  -0.00603  -0.00763   0.00199  -0.00026
  30        4YZ        -0.00814   0.00022   0.00417   0.00276  -0.00309
  31 3   F  1S          0.04413   0.01085  -0.00480  -0.00273   0.00218
  32        2S         -0.07557  -0.01893   0.01020   0.00102   0.00448
  33        2PX        -0.16317  -0.11369   0.18639  -0.05407   0.17420
  34        2PY        -0.24570  -0.17455  -0.10249  -0.00972  -0.09991
  35        2PZ         0.20962  -0.14493  -0.11226  -0.11790   0.04959
  36        3S         -0.20401  -0.05021   0.01922   0.02027  -0.02755
  37        3PX        -0.09162  -0.07039   0.11897  -0.03843   0.12088
  38        3PY        -0.13562  -0.10276  -0.06574  -0.01094  -0.06153
  39        3PZ         0.11691  -0.09228  -0.06868  -0.07524   0.02728
  40        4XX         0.00945   0.00460  -0.00583   0.00037  -0.00203
  41        4YY         0.01284   0.01120   0.00979   0.00042   0.00804
  42        4ZZ         0.01141  -0.00835  -0.00480  -0.00695   0.00502
  43        4XY         0.00619   0.00789  -0.00578   0.00294  -0.00505
  44        4XZ        -0.00542   0.00078   0.00808  -0.00025   0.00343
  45        4YZ        -0.00661   0.00410   0.00029   0.00301  -0.00170
  46 4   F  1S         -0.03533   0.02092   0.03730   0.00778  -0.00173
  47        2S          0.06619  -0.03784  -0.06258  -0.01115   0.00315
  48        2PX         0.15025  -0.13936  -0.07296  -0.05514   0.03946
  49        2PY        -0.11929   0.10879   0.26658   0.07069   0.00107
  50        2PZ        -0.15743  -0.07211   0.07890   0.01325  -0.07682
  51        3S          0.14868  -0.09467  -0.17222  -0.03710   0.00353
  52        3PX         0.08845  -0.08340  -0.03288  -0.03101   0.02444
  53        3PY        -0.06543   0.06045   0.15674   0.04404   0.00085
  54        3PZ        -0.09404  -0.04601   0.04377   0.00797  -0.05636
  55        4XX        -0.00894   0.00845   0.00556   0.00225  -0.00031
  56        4YY        -0.00520   0.00583   0.01838   0.00462   0.00100
  57        4ZZ        -0.00727  -0.00025   0.00779   0.00279  -0.00262
  58        4XY         0.00532  -0.00690  -0.00389  -0.00316   0.00157
  59        4XZ         0.00644   0.00130  -0.00066  -0.00084   0.00150
  60        4YZ        -0.00612  -0.00409   0.00368   0.00026  -0.00336
  61 5   S  1S          0.01110  -0.00760   0.02144  -0.02102   0.00059
  62        2S         -0.04771   0.03074  -0.08914   0.08684  -0.00034
  63        2PX         0.05103  -0.05458   0.08809  -0.01903  -0.05473
  64        2PY        -0.05250   0.04770  -0.02929  -0.12867   0.07892
  65        2PZ        -0.01177   0.04127  -0.01684  -0.07018  -0.12245
  66        3S          0.12691  -0.09317   0.25717  -0.26102   0.01653
  67        3PX        -0.13276   0.14030  -0.22708   0.04897   0.14798
  68        3PY         0.13663  -0.12469   0.07709   0.33762  -0.21131
  69        3PZ         0.02968  -0.10859   0.04266   0.18845   0.33374
  70        4S          0.02828   0.01476   0.00254  -0.00884  -0.01611
  71        4PX        -0.01464   0.02828  -0.04208   0.00096   0.05092
  72        4PY         0.03000  -0.01152   0.01074   0.06499  -0.04131
  73        4PZ        -0.00731  -0.01761   0.00231   0.04468   0.04899
  74        5XX        -0.01399   0.00927  -0.01341   0.00745  -0.02367
  75        5YY         0.00499   0.00032  -0.00022  -0.00689   0.00092
  76        5ZZ         0.00046  -0.00504  -0.00487   0.02900   0.01461
  77        5XY         0.01107   0.00140  -0.01415  -0.01409  -0.00310
  78        5XZ        -0.01532  -0.01228  -0.01371  -0.00810  -0.00198
  79        5YZ         0.00632  -0.01385   0.01521   0.01529  -0.00730
  80 6   O  1S          0.02287   0.00029   0.04253  -0.07046  -0.06610
  81        2S         -0.04891  -0.00126  -0.09629   0.15218   0.13614
  82        2PX        -0.00475   0.04509  -0.01214  -0.07545  -0.07205
  83        2PY         0.02907  -0.02248   0.01380   0.09418  -0.09248
  84        2PZ         0.05034  -0.02748   0.11538  -0.19625  -0.24086
  85        3S         -0.08716  -0.00795  -0.14417   0.27645   0.29849
  86        3PX        -0.00417   0.02482  -0.00685  -0.02931  -0.02726
  87        3PY         0.01143  -0.01121   0.00591   0.05132  -0.05473
  88        3PZ         0.02122  -0.01759   0.05635  -0.09014  -0.10466
  89        4XX        -0.00003   0.00312  -0.00219  -0.00442  -0.00481
  90        4YY         0.00084  -0.00035  -0.00069  -0.00218  -0.00451
  91        4ZZ         0.00651  -0.00387   0.01156  -0.01690  -0.01911
  92        4XY         0.00156  -0.00076   0.00043   0.00347  -0.00422
  93        4XZ        -0.00018   0.00282   0.00025  -0.00732  -0.00545
  94        4YZ         0.00256  -0.00247   0.00209   0.00702  -0.00805
  95 7   O  1S          0.01342  -0.02266   0.04920  -0.05557   0.06618
  96        2S         -0.02883   0.05086  -0.11197   0.12210  -0.13815
  97        2PX        -0.05644   0.03083  -0.05702  -0.04157   0.23794
  98        2PY         0.06926  -0.09283   0.13111   0.02486   0.20932
  99        2PZ        -0.00978   0.00203  -0.08722   0.28871  -0.15407
 100        3S         -0.04252   0.08095  -0.17087   0.21778  -0.30996
 101        3PX        -0.03398   0.01578  -0.03191  -0.01410   0.12184
 102        3PY         0.03250  -0.04521   0.06346   0.02738   0.09533
 103        3PZ        -0.00274  -0.00187  -0.03815   0.14570  -0.05251
 104        4XX        -0.00295   0.00205  -0.00493  -0.00005   0.00912
 105        4YY         0.00699  -0.00874   0.00953   0.00883   0.01150
 106        4ZZ         0.00008   0.00121   0.00486  -0.02472   0.00519
 107        4XY        -0.00183  -0.00004  -0.00196   0.00171   0.01481
 108        4XZ         0.00410  -0.00356   0.00338   0.00785  -0.01370
 109        4YZ        -0.00325   0.00502  -0.00979   0.00818  -0.00854
 110 8   O  1S          0.02434  -0.02063   0.02324   0.00937  -0.02701
 111        2S         -0.05462   0.04813  -0.05099  -0.01161   0.06072
 112        2PX         0.05839  -0.05994   0.03587   0.12621   0.02855
 113        2PY        -0.12631   0.13794  -0.17735  -0.18585   0.03360
 114        2PZ         0.00294  -0.01945   0.00570   0.06786   0.13837
 115        3S         -0.08281   0.06372  -0.07348  -0.06400   0.10353
 116        3PX         0.03468  -0.03816   0.01627   0.07276   0.02027
 117        3PY        -0.06737   0.07733  -0.10322  -0.09831   0.01363
 118        3PZ         0.00851  -0.01420   0.00672   0.05371   0.08795
 119        4XX        -0.00005   0.00066  -0.00157   0.00323   0.00112
 120        4YY         0.00514  -0.00527   0.01011   0.00968   0.00131
 121        4ZZ        -0.00232   0.00402  -0.00194  -0.00327  -0.01013
 122        4XY         0.00062  -0.00032   0.00165  -0.00036  -0.00283
 123        4XZ        -0.00524   0.00465  -0.00376  -0.00820  -0.00047
 124        4YZ         0.00714  -0.00742   0.01036   0.00683  -0.00516
 125 9   H  1S         -0.05462   0.06203  -0.06414  -0.10028  -0.03540
 126        2S         -0.03407   0.03244  -0.04174  -0.05768  -0.01689
                          26        27        28        29        30
                           O         O         O         O         O
     Eigenvalues --    -0.50005  -0.48778  -0.47970  -0.46358  -0.45560
   1 1   C  1S          0.01505   0.00005   0.01434   0.00313   0.00093
   2        2S         -0.04451  -0.00145  -0.03641  -0.00693  -0.00457
   3        2PX         0.02161   0.01304   0.03085   0.02315   0.01502
   4        2PY         0.00503  -0.05763   0.04339   0.01030  -0.02126
   5        2PZ        -0.00294  -0.08051  -0.01354   0.01194   0.02110
   6        3S         -0.01563   0.00339  -0.05053  -0.01804   0.01399
   7        3PX         0.09190  -0.00202   0.08106  -0.00380   0.03839
   8        3PY         0.03098   0.02488  -0.05098   0.04830   0.07972
   9        3PZ        -0.01401   0.04719   0.04396  -0.02945  -0.05943
  10        4XX         0.02200  -0.00070   0.01478  -0.00460   0.00873
  11        4YY        -0.00648   0.03262  -0.00219  -0.00157  -0.00905
  12        4ZZ        -0.00759  -0.03218  -0.00735   0.00497   0.00451
  13        4XY         0.01447  -0.00150  -0.00688  -0.00112  -0.01190
  14        4XZ        -0.00615   0.00756   0.01032   0.00458   0.01293
  15        4YZ         0.01152   0.00869  -0.02739  -0.00448   0.01858
  16 2   F  1S         -0.00035  -0.00675   0.00079   0.00050   0.00053
  17        2S          0.00445   0.01283   0.00513  -0.00576   0.00205
  18        2PX         0.11667   0.26149   0.29349   0.01197   0.24365
  19        2PY         0.14143   0.10156  -0.30506  -0.03588   0.30489
  20        2PZ         0.00315   0.12110  -0.01498  -0.05914  -0.24734
  21        3S         -0.01615   0.00995  -0.03130   0.01545   0.00230
  22        3PX         0.07468   0.18527   0.20218   0.00701   0.16024
  23        3PY         0.09853   0.07158  -0.21015  -0.03157   0.19908
  24        3PZ         0.01081   0.08211  -0.00030  -0.04337  -0.16510
  25        4XX         0.00117  -0.00722  -0.00302  -0.00341  -0.00448
  26        4YY         0.00070   0.00378   0.00641  -0.00198  -0.00265
  27        4ZZ         0.00064  -0.00324   0.00311   0.00029   0.01190
  28        4XY        -0.00124  -0.00207   0.00211  -0.00074  -0.00565
  29        4XZ        -0.00480  -0.01103  -0.01096   0.00010  -0.00432
  30        4YZ        -0.00633  -0.00406   0.01080   0.00343  -0.00675
  31 3   F  1S          0.00168  -0.00014   0.00043   0.00132   0.00602
  32        2S          0.00688  -0.00005  -0.00398   0.01058  -0.00963
  33        2PX         0.42903  -0.07755  -0.12322  -0.07773  -0.21879
  34        2PY        -0.03231   0.29691  -0.07293  -0.03544   0.17998
  35        2PZ         0.11462   0.38569  -0.00627  -0.07898  -0.22156
  36        3S         -0.04680   0.00295   0.01774  -0.04101  -0.06667
  37        3PX         0.28774  -0.05411  -0.09819  -0.04877  -0.14045
  38        3PY        -0.01062   0.20139  -0.04863  -0.01749   0.12998
  39        3PZ         0.07000   0.26152  -0.00724  -0.05852  -0.15369
  40        4XX        -0.00401   0.00161   0.00385   0.00679   0.00914
  41        4YY         0.00574  -0.01473  -0.00176   0.00683  -0.00329
  42        4ZZ         0.00939   0.01272  -0.00571   0.00275  -0.00122
  43        4XY        -0.01269  -0.00099   0.00477   0.00194   0.00306
  44        4XZ         0.00788  -0.00585  -0.00199   0.00007  -0.00046
  45        4YZ        -0.00283  -0.00505  -0.00164   0.00164   0.00954
  46 4   F  1S          0.00011   0.00767  -0.00143  -0.00151   0.00073
  47        2S          0.00563  -0.01443   0.00943  -0.00994   0.00159
  48        2PX         0.09810  -0.24768   0.31124   0.01858   0.13852
  49        2PY         0.04261   0.03883  -0.06215  -0.03728   0.24721
  50        2PZ        -0.09828   0.18149   0.27748   0.02669  -0.15907
  51        3S         -0.02185  -0.01720  -0.02424   0.03675  -0.00174
  52        3PX         0.06397  -0.17579   0.21829   0.00820   0.08981
  53        3PY         0.02000   0.02331  -0.05047  -0.02045   0.16293
  54        3PZ        -0.07216   0.12579   0.18875   0.02769  -0.10181
  55        4XX         0.00187   0.00917  -0.00713  -0.00595  -0.00275
  56        4YY         0.00431  -0.00212   0.00036  -0.00747   0.00963
  57        4ZZ        -0.00079   0.00040   0.01145  -0.00340  -0.00193
  58        4XY         0.00360  -0.00789   0.01086   0.00085  -0.00100
  59        4XZ         0.00305  -0.00515  -0.00052  -0.00057   0.00514
  60        4YZ        -0.00333   0.00651   0.00714   0.00170   0.00011
  61 5   S  1S          0.00482  -0.00153   0.00482  -0.00460   0.00155
  62        2S         -0.01910   0.00742  -0.02078   0.01972  -0.00545
  63        2PX        -0.09174  -0.00375  -0.05318   0.00186  -0.02174
  64        2PY        -0.04452   0.00187  -0.00553   0.04690   0.00401
  65        2PZ         0.06367  -0.01124  -0.00631   0.05604  -0.01386
  66        3S          0.05652  -0.01564   0.05555  -0.05440   0.02214
  67        3PX         0.25161   0.00938   0.14692  -0.00793   0.06361
  68        3PY         0.12213  -0.00591   0.01732  -0.12553  -0.01230
  69        3PZ        -0.17287   0.02857   0.01452  -0.15181   0.03934
  70        4S          0.04300  -0.00658   0.02680   0.00662  -0.00209
  71        4PX         0.08287   0.00678   0.05052   0.02029   0.01908
  72        4PY        -0.01878  -0.03344   0.07176  -0.10380   0.04356
  73        4PZ         0.01795  -0.04680  -0.04543   0.03178  -0.05858
  74        5XX        -0.01577  -0.00114  -0.02549  -0.01370  -0.01131
  75        5YY         0.00996   0.00592   0.00991   0.01924   0.00769
  76        5ZZ         0.01841  -0.00273   0.01505  -0.00208   0.00330
  77        5XY        -0.02203  -0.00488  -0.00994   0.02438   0.00736
  78        5XZ         0.01824  -0.01301   0.00652  -0.00431  -0.01405
  79        5YZ         0.00796   0.00663  -0.01934   0.07434  -0.01411
  80 6   O  1S          0.01761  -0.00832  -0.00347   0.00996  -0.00556
  81        2S         -0.04379   0.02799   0.01232  -0.01897   0.01707
  82        2PX         0.15086  -0.01033   0.06014   0.09524   0.03281
  83        2PY         0.04352  -0.01818   0.03926  -0.21888   0.01799
  84        2PZ         0.03393  -0.04380  -0.04785   0.06685  -0.07017
  85        3S         -0.04614   0.00062  -0.00169  -0.04073   0.00049
  86        3PX         0.08643  -0.01055   0.03419   0.06194   0.02180
  87        3PY         0.03028  -0.00726   0.01699  -0.14539   0.00599
  88        3PZ         0.01648  -0.02704  -0.02692   0.02766  -0.04192
  89        4XX         0.00519   0.00348   0.00458   0.00556   0.00452
  90        4YY        -0.00139   0.00371   0.00223  -0.00207   0.00238
  91        4ZZ        -0.00499   0.00192  -0.00385   0.00478  -0.00313
  92        4XY         0.00191  -0.00053   0.00102  -0.00499   0.00096
  93        4XZ         0.01002  -0.00119   0.00342   0.00768   0.00162
  94        4YZ         0.00384  -0.00089   0.00118  -0.01538   0.00015
  95 7   O  1S         -0.04178   0.00118  -0.00109  -0.00862   0.00113
  96        2S          0.09256  -0.00326  -0.01362   0.02579  -0.00950
  97        2PX         0.09325   0.00101   0.14965  -0.09029   0.03483
  98        2PY        -0.18530   0.00859  -0.00443  -0.17764   0.03121
  99        2PZ         0.18807  -0.00355   0.02774  -0.03734  -0.03664
 100        3S          0.17801   0.00085   0.06525  -0.00111   0.03143
 101        3PX         0.05974  -0.00441   0.09790  -0.06658   0.01723
 102        3PY        -0.08659   0.01201  -0.00304  -0.09567   0.01836
 103        3PZ         0.08451   0.00574   0.00717  -0.02898  -0.02330
 104        4XX         0.00720  -0.00060   0.00027  -0.00043  -0.00320
 105        4YY        -0.00870   0.00187  -0.00813  -0.00739  -0.00226
 106        4ZZ        -0.00832  -0.00122  -0.00997   0.01455  -0.00222
 107        4XY         0.00334  -0.00017   0.00788  -0.00730   0.00179
 108        4XZ        -0.00507  -0.00040  -0.00881   0.00121  -0.00272
 109        4YZ         0.01293   0.00000   0.00288   0.00538  -0.00119
 110 8   O  1S         -0.00210  -0.00841   0.00316  -0.06542   0.00122
 111        2S          0.00187   0.00993  -0.00103   0.14033  -0.00279
 112        2PX         0.08100   0.03854   0.02889   0.18996   0.02913
 113        2PY         0.00367  -0.03319   0.02592  -0.06644   0.02973
 114        2PZ        -0.01876   0.04388  -0.03365   0.35094  -0.01669
 115        3S          0.02275   0.06296  -0.03123   0.28992  -0.00719
 116        3PX         0.05096   0.02915   0.01275   0.13289   0.02120
 117        3PY        -0.00366  -0.02988   0.02132  -0.04896   0.01873
 118        3PZ        -0.01779   0.02859  -0.02046   0.22647  -0.00466
 119        4XX        -0.00100  -0.00360   0.00207  -0.00168   0.00044
 120        4YY        -0.00219  -0.00128   0.00115   0.00252  -0.00103
 121        4ZZ         0.00100  -0.00765   0.00497  -0.03001   0.00071
 122        4XY        -0.00380  -0.00049  -0.00212  -0.00355  -0.00136
 123        4XZ        -0.00449  -0.00291  -0.00150  -0.01271  -0.00171
 124        4YZ         0.00198   0.00071  -0.00112  -0.00028  -0.00177
 125 9   H  1S         -0.01584  -0.03473   0.01238  -0.19260   0.00696
 126        2S         -0.00902  -0.02165   0.00026  -0.15688   0.00242
                          31        32        33        34        35
                           O         O         O         O         O
     Eigenvalues --    -0.44387  -0.42772  -0.40645  -0.39305  -0.36990
   1 1   C  1S          0.00096   0.00006   0.00417   0.03805   0.02680
   2        2S         -0.00117   0.00056  -0.00513  -0.07145  -0.04473
   3        2PX         0.01106   0.00120   0.02485   0.20817   0.12974
   4        2PY        -0.02171  -0.00989   0.00187   0.02003   0.01501
   5        2PZ        -0.02018  -0.01553  -0.00006   0.00637   0.00206
   6        3S         -0.00452  -0.00247  -0.04338  -0.26862  -0.22457
   7        3PX         0.00285  -0.00263   0.01420   0.06701   0.06398
   8        3PY         0.05141   0.02626  -0.02728  -0.01795   0.03794
   9        3PZ         0.02661   0.04993  -0.06724   0.03506  -0.02324
  10        4XX         0.00395   0.00107  -0.00350  -0.02485  -0.01218
  11        4YY         0.00272   0.00613   0.00249   0.01187   0.00596
  12        4ZZ        -0.00554  -0.00693   0.00085   0.01250   0.00825
  13        4XY        -0.01576  -0.00408   0.00194  -0.00380  -0.00654
  14        4XZ        -0.01620  -0.00471   0.00214  -0.00300   0.00319
  15        4YZ         0.00204   0.00124  -0.00005   0.00034   0.00076
  16 2   F  1S          0.00084   0.00241  -0.00190  -0.00140  -0.00342
  17        2S         -0.00458  -0.00455  -0.01421   0.00057  -0.00050
  18        2PX        -0.29036  -0.12529  -0.01389  -0.11630  -0.12611
  19        2PY        -0.05125   0.42806   0.03278   0.01611  -0.04724
  20        2PZ         0.24404   0.09365  -0.01687  -0.04681  -0.01112
  21        3S         -0.00985  -0.02496   0.05791   0.01998   0.04667
  22        3PX        -0.19626  -0.07854  -0.01631  -0.08945  -0.09507
  23        3PY        -0.04236   0.28724   0.02377   0.01328  -0.03835
  24        3PZ         0.16888   0.06880  -0.02563  -0.03944  -0.01992
  25        4XX         0.00747   0.00356  -0.00797  -0.00160  -0.00344
  26        4YY         0.00075   0.00050  -0.00819  -0.00183  -0.00270
  27        4ZZ        -0.01246  -0.00413  -0.00622   0.00159  -0.00234
  28        4XY         0.00095  -0.00703   0.00001   0.00046  -0.00011
  29        4XZ         0.00503   0.00139   0.00109   0.00241   0.00297
  30        4YZ         0.00266  -0.01049  -0.00144  -0.00138   0.00228
  31 3   F  1S          0.00144  -0.00058   0.00013  -0.00609   0.00020
  32        2S         -0.00134   0.00031   0.00644  -0.00652  -0.00276
  33        2PX        -0.07121   0.02155  -0.04251  -0.18337  -0.00822
  34        2PY         0.18724  -0.12480   0.01059  -0.02644  -0.01883
  35        2PZ         0.16945  -0.15161   0.00802  -0.01070   0.01289
  36        3S         -0.01624   0.00656  -0.01343   0.09091   0.00351
  37        3PX        -0.04519   0.01326  -0.02690  -0.13929  -0.01292
  38        3PY         0.12068  -0.08714   0.01494  -0.03521  -0.01500
  39        3PZ         0.10203  -0.10457   0.01344   0.00211   0.01086
  40        4XX         0.00309  -0.00096   0.00285  -0.00884  -0.00182
  41        4YY        -0.00411   0.00490   0.00066  -0.00669  -0.00033
  42        4ZZ         0.00314  -0.00513   0.00555  -0.00861  -0.00064
  43        4XY        -0.00303   0.00203   0.00109   0.00333  -0.00086
  44        4XZ        -0.00539   0.00328  -0.00005  -0.00243   0.00033
  45        4YZ         0.00014   0.00146  -0.00062  -0.00050  -0.00103
  46 4   F  1S         -0.00088  -0.00177   0.00102  -0.00229  -0.00274
  47        2S          0.00411   0.00444   0.00978   0.00095  -0.00124
  48        2PX         0.31241   0.06675  -0.01247  -0.18039  -0.11528
  49        2PY         0.38704  -0.05455  -0.00988   0.01617  -0.01354
  50        2PZ         0.01414   0.48357   0.02434  -0.03724   0.02778
  51        3S          0.01703   0.01785  -0.03408   0.03184   0.04067
  52        3PX         0.20942   0.04006  -0.00478  -0.13486  -0.08914
  53        3PY         0.26908  -0.03204  -0.01476   0.02175  -0.00134
  54        3PZ         0.00913   0.32614   0.02005  -0.02727   0.02839
  55        4XX        -0.01054  -0.00169   0.00517  -0.00037  -0.00240
  56        4YY         0.01641  -0.00113   0.00402   0.00043  -0.00334
  57        4ZZ        -0.00125   0.00475   0.00629  -0.00323  -0.00161
  58        4XY         0.00048   0.00226   0.00021  -0.00423  -0.00247
  59        4XZ         0.00240  -0.00904  -0.00039  -0.00101  -0.00147
  60        4YZ         0.00388   0.00968   0.00184  -0.00113   0.00153
  61 5   S  1S          0.00050   0.00012   0.00194  -0.00222  -0.00200
  62        2S         -0.00267  -0.00072  -0.00788   0.00556   0.00413
  63        2PX         0.00098   0.00053   0.00301   0.03670   0.01929
  64        2PY         0.01076   0.00013   0.01219   0.00937  -0.00187
  65        2PZ         0.01235   0.00104   0.02236   0.00884   0.00502
  66        3S          0.00512   0.00107   0.02846  -0.03411  -0.03191
  67        3PX        -0.00125  -0.00129  -0.01098  -0.11842  -0.06298
  68        3PY        -0.03156  -0.00146  -0.03781  -0.02693   0.00364
  69        3PZ        -0.03577  -0.00371  -0.06520  -0.02652  -0.01383
  70        4S          0.00147   0.00499  -0.02542  -0.00820   0.00936
  71        4PX         0.00036   0.00064   0.03686   0.10202   0.14286
  72        4PY         0.03445   0.00604   0.04302   0.00523   0.11051
  73        4PZ         0.05977   0.01001   0.11116   0.03039  -0.09059
  74        5XX        -0.00569   0.00017  -0.01687  -0.09356  -0.08501
  75        5YY        -0.00056   0.00428  -0.12407   0.03235   0.02591
  76        5ZZ         0.00358  -0.00502   0.13303   0.04710   0.04158
  77        5XY         0.01037   0.00118  -0.01076  -0.07075   0.03479
  78        5XZ         0.01512   0.00709  -0.01380   0.08527  -0.06365
  79        5YZ         0.00273  -0.00332  -0.00308  -0.03328  -0.06246
  80 6   O  1S          0.00354  -0.00007   0.01545   0.01004   0.00163
  81        2S         -0.01560  -0.00097  -0.04168  -0.02258  -0.00109
  82        2PX         0.00825  -0.01800   0.24164  -0.00610   0.34285
  83        2PY        -0.02316   0.00964  -0.00886   0.11364   0.20975
  84        2PZ         0.05021   0.01207   0.15148   0.19686  -0.14619
  85        3S          0.01814   0.00466  -0.00366  -0.01492  -0.02199
  86        3PX         0.00833  -0.01294   0.17123  -0.02474   0.22948
  87        3PY        -0.02482   0.00774  -0.01707   0.08552   0.13475
  88        3PZ         0.03356   0.00897   0.08468   0.12606  -0.09981
  89        4XX        -0.00361  -0.00172   0.00455  -0.00867   0.01506
  90        4YY        -0.00366  -0.00026  -0.00890  -0.00104   0.00271
  91        4ZZ        -0.00035   0.00080  -0.00453   0.00788  -0.01244
  92        4XY        -0.00062   0.00047  -0.00068   0.00145   0.00866
  93        4XZ         0.00146  -0.00079   0.01188  -0.00131   0.01762
  94        4YZ        -0.00251   0.00064  -0.00168   0.00778   0.01081
  95 7   O  1S          0.00047   0.00013   0.00214   0.00210  -0.00467
  96        2S         -0.00042   0.00165   0.00028  -0.00865   0.00307
  97        2PX         0.01459   0.01027   0.01109   0.46839  -0.10741
  98        2PY        -0.02394  -0.01822   0.35120  -0.09413   0.12179
  99        2PZ        -0.01170  -0.01114   0.28660   0.05146  -0.17692
 100        3S         -0.00932  -0.00611  -0.02808   0.00269   0.08103
 101        3PX         0.01249   0.00573  -0.00439   0.31889  -0.09595
 102        3PY        -0.02371  -0.01672   0.23751  -0.06867   0.06967
 103        3PZ        -0.01604  -0.01026   0.19375   0.03156  -0.11321
 104        4XX         0.00086   0.00104   0.00064   0.01421  -0.01495
 105        4YY        -0.00319  -0.00100   0.02818  -0.01111  -0.00428
 106        4ZZ         0.00309   0.00210  -0.02423  -0.00631   0.00248
 107        4XY         0.00112   0.00000   0.00667   0.01843  -0.00713
 108        4XZ        -0.00076  -0.00077   0.00682  -0.02228   0.00667
 109        4YZ         0.00048   0.00041  -0.00344   0.00801  -0.00663
 110 8   O  1S         -0.00304   0.00236  -0.00820  -0.00883  -0.00361
 111        2S          0.01344  -0.00443   0.02526   0.01783   0.00841
 112        2PX         0.03170   0.01205  -0.20816   0.08582   0.30326
 113        2PY         0.04149   0.01221   0.12729  -0.06863   0.16319
 114        2PZ         0.02514  -0.01454   0.20964   0.00109  -0.07369
 115        3S         -0.01521  -0.01409  -0.01038   0.04868   0.00772
 116        3PX         0.02330   0.00994  -0.16129   0.05497   0.21065
 117        3PY         0.04071   0.00988   0.09188  -0.05183   0.11678
 118        3PZ         0.01417  -0.00812   0.15732  -0.01515  -0.04651
 119        4XX         0.00369   0.00076   0.00357  -0.00464  -0.00204
 120        4YY        -0.00003  -0.00077   0.00396  -0.00016  -0.00571
 121        4ZZ         0.00134   0.00143  -0.00731   0.00054   0.00579
 122        4XY        -0.00092  -0.00048   0.00531  -0.00110  -0.00588
 123        4XZ        -0.00129   0.00007   0.00993  -0.00290  -0.01347
 124        4YZ        -0.00179   0.00004  -0.01395   0.00701  -0.00479
 125 9   H  1S         -0.00605   0.00593   0.02135  -0.04542  -0.01398
 126        2S         -0.00737   0.00577   0.01729  -0.02743  -0.01772
                          36        37        38        39        40
                           O         O         V         V         V
     Eigenvalues --    -0.35596  -0.34617  -0.05138  -0.03388   0.00098
   1 1   C  1S         -0.01625  -0.01707   0.03669   0.09230  -0.08670
   2        2S          0.02985   0.03332  -0.08547  -0.21288   0.21103
   3        2PX        -0.07952  -0.07944   0.07314   0.30702  -0.15029
   4        2PY        -0.00865  -0.01070   0.19279  -0.12950  -0.18859
   5        2PZ        -0.00060  -0.00287   0.13840  -0.08912   0.11344
   6        3S          0.11091   0.11236  -0.22664  -0.65089   0.52518
   7        3PX        -0.03417  -0.02966   0.03341   0.28924  -0.09616
   8        3PY         0.02704  -0.05187   0.30606  -0.16175  -0.19519
   9        3PZ         0.03973  -0.01416   0.14466  -0.10323   0.13593
  10        4XX         0.00780   0.00619   0.00930   0.00170  -0.01734
  11        4YY        -0.00418  -0.00367   0.00346   0.00802   0.00251
  12        4ZZ        -0.00427  -0.00404  -0.00423   0.01113  -0.00706
  13        4XY        -0.00047   0.00280  -0.02349   0.02477   0.01818
  14        4XZ        -0.00325   0.00209  -0.01864   0.00946  -0.01503
  15        4YZ        -0.00063   0.00042  -0.00009  -0.00491  -0.00767
  16 2   F  1S          0.00418   0.00071   0.01123  -0.01905   0.02392
  17        2S          0.00102   0.00023  -0.01915   0.03467  -0.05480
  18        2PX         0.10547   0.02818   0.05744  -0.12273   0.11250
  19        2PY        -0.01327   0.00430  -0.05050   0.03028   0.06560
  20        2PZ         0.00941   0.01072   0.04157  -0.10599   0.11004
  21        3S         -0.05412  -0.00768  -0.09430   0.15340  -0.17244
  22        3PX         0.08048   0.02356   0.05141  -0.11837   0.09407
[...]
 126        2S         -0.00009   0.00138  -0.00030   0.00000   0.00002
                         106       107       108       109       110
 106        4ZZ         0.00401
 107        4XY        -0.00000   0.00192
 108        4XZ        -0.00000   0.00000   0.00226
 109        4YZ         0.00000  -0.00000  -0.00000   0.00182
 110 8   O  1S         -0.00000  -0.00000   0.00000   0.00000   2.07922
 111        2S          0.00000   0.00000  -0.00000  -0.00000  -0.04332
 112        2PX         0.00000   0.00000  -0.00000   0.00000   0.00000
 113        2PY         0.00000   0.00000  -0.00000  -0.00000   0.00000
 114        2PZ        -0.00000   0.00000  -0.00000   0.00000   0.00000
 115        3S          0.00013   0.00000  -0.00000  -0.00003  -0.04368
 116        3PX         0.00000   0.00002  -0.00001   0.00000   0.00000
 117        3PY         0.00013   0.00001  -0.00001  -0.00009   0.00000
 118        3PZ         0.00000   0.00000  -0.00000   0.00001   0.00000
 119        4XX        -0.00000  -0.00000  -0.00000   0.00000  -0.00043
 120        4YY        -0.00000  -0.00000   0.00000   0.00000  -0.00058
 121        4ZZ        -0.00000  -0.00000  -0.00000  -0.00000  -0.00041
 122        4XY         0.00000   0.00000   0.00000   0.00000   0.00000
 123        4XZ         0.00000   0.00000  -0.00000   0.00000  -0.00000
 124        4YZ         0.00000  -0.00000  -0.00000  -0.00000  -0.00000
 125 9   H  1S         -0.00000  -0.00000   0.00000   0.00000  -0.00025
 126        2S         -0.00002  -0.00000   0.00000   0.00001   0.00049
                         111       112       113       114       115
 111        2S          0.52129
 112        2PX         0.00000   0.71010
 113        2PY         0.00000   0.00000   0.59812
 114        2PZ         0.00000  -0.00000  -0.00000   0.64878
 115        3S          0.47292   0.00000   0.00000   0.00000   0.80244
 116        3PX         0.00000   0.25408   0.00000  -0.00000   0.00000
 117        3PY         0.00000   0.00000   0.20186  -0.00000   0.00000
 118        3PZ         0.00000  -0.00000  -0.00000   0.22244   0.00000
 119        4XX        -0.00327   0.00000   0.00000   0.00000  -0.00647
 120        4YY         0.00184   0.00000   0.00000   0.00000   0.00191
 121        4ZZ        -0.00446   0.00000   0.00000   0.00000  -0.01199
 122        4XY        -0.00000   0.00000   0.00000   0.00000  -0.00000
 123        4XZ         0.00000   0.00000   0.00000   0.00000   0.00000
 124        4YZ         0.00000   0.00000   0.00000   0.00000   0.00000
 125 9   H  1S          0.00543   0.01173   0.00954   0.02588   0.00238
 126        2S         -0.00710   0.00688   0.00601   0.01511  -0.03561
                         116       117       118       119       120
 116        3PX         0.36416
 117        3PY         0.00000   0.27810
 118        3PZ        -0.00000  -0.00000   0.30522
 119        4XX         0.00000   0.00000   0.00000   0.00053
 120        4YY         0.00000   0.00000   0.00000   0.00002   0.00111
 121        4ZZ         0.00000   0.00000   0.00000   0.00003  -0.00015
 122        4XY         0.00000   0.00000   0.00000   0.00000   0.00000
 123        4XZ         0.00000   0.00000   0.00000   0.00000   0.00000
 124        4YZ         0.00000   0.00000   0.00000   0.00000  -0.00000
 125 9   H  1S          0.02289   0.01688   0.05337  -0.00015  -0.00076
 126        2S          0.01532   0.01269   0.03477   0.00010  -0.00126
                         121       122       123       124       125
 121        4ZZ         0.00286
 122        4XY        -0.00000   0.00075
 123        4XZ         0.00000  -0.00000   0.00170
 124        4YZ        -0.00000   0.00000  -0.00000   0.00164
 125 9   H  1S          0.00395   0.00012   0.00206   0.00093   0.15822
 126        2S          0.00426  -0.00002   0.00038   0.00019   0.06776
                         126
 126        2S          0.07446
     Gross orbital populations:
                           1
   1 1   C  1S          1.99224
   2        2S          0.72390
   3        2PX         0.65881
   4        2PY         0.53465
   5        2PZ         0.53065
   6        3S          0.38556
   7        3PX         0.18736
   8        3PY         0.13437
   9        3PZ         0.13225
  10        4XX         0.01461
  11        4YY         0.00500
  12        4ZZ         0.00457
  13        4XY         0.02225
  14        4XZ         0.01944
  15        4YZ         0.03012
  16 2   F  1S          1.99337
  17        2S          0.95543
  18        2PX         1.13554
  19        2PY         1.18974
  20        2PZ         0.95153
  21        3S          0.98603
  22        3PX         0.69970
  23        3PY         0.71862
  24        3PZ         0.57297
  25        4XX         0.00962
  26        4YY         0.00563
  27        4ZZ         0.02970
  28        4XY         0.00067
  29        4XZ         0.00477
  30        4YZ         0.00279
  31 3   F  1S          1.99331
  32        2S          0.95821
  33        2PX         1.14636
  34        2PY         1.03680
  35        2PZ         1.11213
  36        3S          0.96288
  37        3PX         0.68856
  38        3PY         0.59875
  39        3PZ         0.65166
  40        4XX         0.01095
  41        4YY         0.02229
  42        4ZZ         0.01440
  43        4XY         0.00389
  44        4XZ         0.00221
  45        4YZ         0.00557
  46 4   F  1S          1.99336
  47        2S          0.95477
  48        2PX         1.09403
  49        2PY         1.01473
  50        2PZ         1.16588
  51        3S          0.98845
  52        3PX         0.68164
  53        3PY         0.61731
  54        3PZ         0.70662
  55        4XX         0.01276
  56        4YY         0.02231
  57        4ZZ         0.00736
  58        4XY         0.00489
  59        4XZ         0.00152
  60        4YZ         0.00311
  61 5   S  1S          1.99861
  62        2S          1.98814
  63        2PX         1.98866
  64        2PY         1.98856
  65        2PZ         1.98900
  66        3S          1.34075
  67        3PX         0.90222
  68        3PY         0.83261
  69        3PZ         0.86302
  70        4S         -0.03638
  71        4PX         0.15336
  72        4PY         0.15991
  73        4PZ         0.09739
  74        5XX         0.07048
  75        5YY         0.06074
  76        5ZZ         0.09810
  77        5XY         0.07050
  78        5XZ         0.12025
  79        5YZ         0.14295
  80 6   O  1S          1.99270
  81        2S          0.93212
  82        2PX         0.95173
  83        2PY         1.01652
  84        2PZ         0.86918
  85        3S          1.00746
  86        3PX         0.61426
  87        3PY         0.66399
  88        3PZ         0.42427
  89        4XX        -0.00580
  90        4YY        -0.01052
  91        4ZZ         0.01140
  92        4XY         0.00181
  93        4XZ         0.00911
  94        4YZ         0.00747
  95 7   O  1S          1.99248
  96        2S          0.93528
  97        2PX         0.98385
  98        2PY         0.97214
  99        2PZ         0.95610
 100        3S          0.91628
 101        3PX         0.59739
 102        3PY         0.49822
 103        3PZ         0.46873
 104        4XX        -0.00281
 105        4YY         0.00538
 106        4ZZ         0.00793
 107        4XY         0.00644
 108        4XZ         0.00767
 109        4YZ         0.00933
 110 8   O  1S          1.99276
 111        2S          0.92147
 112        2PX         1.00109
 113        2PY         0.86497
 114        2PZ         0.92877
 115        3S          1.04156
 116        3PX         0.69384
 117        3PY         0.54859
 118        3PZ         0.63683
 119        4XX        -0.00800
 120        4YY         0.00864
 121        4ZZ        -0.00263
 122        4XY         0.00210
 123        4XZ         0.00497
 124        4YZ         0.00655
 125 9   H  1S          0.38007
 126        2S          0.20091
          Condensed to atoms (all electrons):
               1          2          3          4          5          6
     1  C    4.751429   0.198662   0.223690   0.203593   0.086346  -0.029377
     2  F    0.198662   9.108031  -0.028703  -0.032233   0.010884   0.000179
     3  F    0.223690  -0.028703   9.037880  -0.030919   0.006486  -0.000211
     4  F    0.203593  -0.032233  -0.030919   9.120061   0.008090  -0.000025
     5  S    0.086346   0.010884   0.006486   0.008090  13.606568   0.432237
     6  O   -0.029377   0.000179  -0.000211  -0.000025   0.432237   8.173591
     7  O   -0.038295  -0.000372   0.000219   0.000032   0.514714  -0.043299
     8  O   -0.021167  -0.000359  -0.000325   0.000154   0.161242  -0.049588
     9  H    0.000882   0.000003  -0.000149  -0.000004   0.002284   0.002178
               7          8          9
     1  C   -0.038295  -0.021167   0.000882
     2  F   -0.000372  -0.000359   0.000003
     3  F    0.000219  -0.000325  -0.000149
     4  F    0.000032   0.000154  -0.000004
     5  S    0.514714   0.161242   0.002284
     6  O   -0.043299  -0.049588   0.002178
     7  O    7.971395  -0.051361   0.001371
     8  O   -0.051361   8.396686   0.206223
     9  H    0.001371   0.206223   0.368192
 Mulliken charges:
               1
     1  C    0.624237
     2  F   -0.256093
     3  F   -0.207969
     4  F   -0.268750
     5  S    1.171149
     6  O   -0.485685
     7  O   -0.354404
     8  O   -0.641505
     9  H    0.419020
 Sum of Mulliken charges =  -0.00000
 Mulliken charges with hydrogens summed into heavy atoms:
               1
     1  C    0.624237
     2  F   -0.256093
     3  F   -0.207969
     4  F   -0.268750
     5  S    1.171149
     6  O   -0.485685
     7  O   -0.354404
     8  O   -0.222485
 Electronic spatial extent (au):  <R**2>=            918.8933
 Charge=              0.0000 electrons
 Dipole moment (field-independent basis, Debye):
    X=             -0.1408    Y=              1.9648    Z=             -0.8061  Tot=              2.1284
 Quadrupole moment (field-independent basis, Debye-Ang):
   XX=            -48.4308   YY=            -47.0316   ZZ=            -53.4783
   XY=             -4.3088   XZ=              0.7566   YZ=             -1.9956
 Traceless Quadrupole moment (field-independent basis, Debye-Ang):
   XX=              1.2161   YY=              2.6153   ZZ=             -3.8314
   XY=             -4.3088   XZ=              0.7566   YZ=             -1.9956
 Octapole moment (field-independent basis, Debye-Ang**2):
  XXX=              9.5535  YYY=              9.5563  ZZZ=              2.7487  XYY=             -1.8134
  XXY=             12.5301  XXZ=             -2.1029  XZZ=             11.1304  YZZ=              1.6705
  YYZ=             -5.3697  XYZ=              3.2537
 Hexadecapole moment (field-independent basis, Debye-Ang**3):
 XXXX=           -488.6272 YYYY=           -200.9298 ZZZZ=           -214.1188 XXXY=            -21.7901
 XXXZ=              3.4456 YYYX=            -20.2543 YYYZ=             -6.8203 ZZZX=             -4.7765
 ZZZY=             -2.5498 XXYY=           -103.6817 XXZZ=           -128.6665 YYZZ=            -73.2027
 XXYZ=             -8.2712 YYXZ=              8.8383 ZZXY=             -1.8754
 N-N= 5.497518160666D+02 E-N=-3.378224921068D+03  KE= 9.558654061831D+02
 Orbital energies and kinetic energies (alpha):
                                 1                 2
   1         O               -89.173056        120.981288
   2         O               -24.790409         37.083337
   3         O               -24.759717         37.084485
   4         O               -24.755438         37.084596
   5         O               -19.233000         29.033023
   6         O               -19.214789         29.023012
   7         O               -19.198571         29.028771
   8         O               -10.502780         15.902819
   9         O                -8.200892         18.521305
  10         O                -6.165610         17.520563
  11         O                -6.164659         17.506775
  12         O                -6.163949         17.515551
  13         O                -1.326978          3.359507
  14         O                -1.249037          3.766426
  15         O                -1.221598          3.864173
  16         O                -1.209554          2.880289
  17         O                -1.076919          2.916738
  18         O                -1.018638          2.790062
  19         O                -0.793711          2.539618
  20         O                -0.681939          2.922017
  21         O                -0.616332          2.716359
  22         O                -0.606137          2.574506
  23         O                -0.593917          2.599965
  24         O                -0.554334          2.512199
  25         O                -0.513755          2.711448
  26         O                -0.500054          2.907627
  27         O                -0.487776          3.204580
  28         O                -0.479697          3.009955
  29         O                -0.463581          2.125797
  30         O                -0.455603          3.296641
  31         O                -0.443865          3.365039
  32         O                -0.427718          3.488307
  33         O                -0.406445          2.303627
  34         O                -0.393046          2.524329
  35         O                -0.369896          2.369246
  36         O                -0.355955          2.430458
  37         O                -0.346171          2.468266
  38         V                -0.051381          2.509996
  39         V                -0.033885          2.903715
  40         V                 0.000983          3.025031
  41         V                 0.018368          2.695634
  42         V                 0.081037          3.595577
  43         V                 0.111558          3.075520
  44         V                 0.132387          3.757967
  45         V                 0.192977          2.977555
  46         V                 0.284888          2.157539
  47         V                 0.311042          1.963457
  48         V                 0.337364          2.158916
  49         V                 0.404946          2.807978
  50         V                 0.456147          2.468774
  51         V                 0.497684          2.533302
  52         V                 0.518867          2.406017
  53         V                 0.651050          2.287500
  54         V                 0.672300          2.725864
  55         V                 0.691874          2.542797
  56         V                 0.746667          2.598005
  57         V                 0.754508          2.551843
  58         V                 0.797054          2.765575
  59         V                 0.861169          3.028365
  60         V                 0.872247          2.682469
  61         V                 0.927583          3.047472
  62         V                 0.965955          3.302136
  63         V                 0.970678          3.317061
  64         V                 0.997246          3.611372
  65         V                 1.010857          3.698115
  66         V                 1.039337          3.449169
  67         V                 1.077892          3.604487
  68         V                 1.091871          3.616635
  69         V                 1.100397          3.732481
  70         V                 1.133369          3.701142
  71         V                 1.168726          3.490148
  72         V                 1.183967          3.521428
  73         V                 1.237947          4.721334
  74         V                 1.269148          3.262066
  75         V                 1.287071          4.376134
  76         V                 1.323813          3.850753
  77         V                 1.346199          2.987715
  78         V                 1.353842          2.938694
  79         V                 1.357895          3.411878
  80         V                 1.380176          3.761714
  81         V                 1.526299          3.113218
  82         V                 1.547747          2.964993
  83         V                 1.568345          3.508568
  84         V                 1.603056          3.413048
  85         V                 1.687102          3.153876
  86         V                 1.708019          2.906448
  87         V                 1.729186          2.954058
  88         V                 1.747235          3.071704
  89         V                 1.765092          2.989369
  90         V                 1.781366          2.998058
  91         V                 1.786552          2.981091
  92         V                 1.796663          2.942213
  93         V                 1.811826          3.207609
  94         V                 1.825824          3.047145
  95         V                 1.829980          3.096241
  96         V                 1.864050          3.097391
  97         V                 1.900406          3.304844
  98         V                 1.915943          3.347204
  99         V                 1.940626          3.647062
 100         V                 1.967250          3.552488
 101         V                 1.989346          3.706317
 102         V                 2.009150          3.584739
 103         V                 2.066881          3.675468
 104         V                 2.096386          3.564126
 105         V                 2.103830          3.620190
 106         V                 2.144679          3.646129
 107         V                 2.163618          3.646582
 108         V                 2.188616          3.879773
 109         V                 2.294685          4.053212
 110         V                 2.356217          4.396506
 111         V                 2.555862          3.979225
 112         V                 2.610999          4.043497
 113         V                 2.641848          4.323271
 114         V                 2.723802          4.837199
 115         V                 2.818098          5.303645
 116         V                 2.849818          6.052743
 117         V                 2.999338          5.775904
 118         V                 3.026862          5.668974
 119         V                 3.543682          9.970488
 120         V                 3.848009         10.750882
 121         V                 3.855910         11.699584
 122         V                 3.940715         11.646112
 123         V                 4.214229         11.583301
 124         V                 4.275249         10.498220
 125         V                 4.347729         11.437144
 126         V                 5.045944         13.876391
 Total kinetic energy from orbitals= 9.558654061831D+02
 Unable to Open any file for archive entry.
 1\1\GINC-SPARTAN-BM162\SP\RB3LYP\6-31G(d)\C1H1F3O3S1\AKHALILOV\20-Mar-
 2025\0\\# B3LYP/6-31G(d) pop=full density=current\\PFMS Time step 45\\
 0,1\C,0,-0.919062,0.033967,-0.215775\F,0,-1.053063,0.156,-1.626507\F,0
 ,-1.593687,1.051085,0.353395\F,0,-1.68486,-1.152251,0.058311\S,0,0.856
 706,-0.182368,0.274356\O,0,1.032343,-0.184144,1.73335\O,0,1.520245,-1.
 036443,-0.5394\O,0,1.457275,1.371592,-0.187341\H,0,1.780432,1.950728,0
 .790068\\Version=ES64L-G16RevC.01\State=1-A\HF=-961.9329027\RMSD=4.388
 e-09\Dipole=-0.0682957,0.7756298,0.3081101\Quadrupole=0.0884036,2.2504
 455,-2.3388491,2.609669,1.3263996,2.3010787\PG=C01 [X(C1H1F3O3S1)]\\@
 The archive entry for this job was punched.


 LAW OF COMPENSATION:
      NO CALCULATION IS EVER A COMPLETE FAILURE; IT 
      CAN ALWAYS SERVE AS A BAD EXAMPLE.

                                           -- ANON
 Job cpu time:       0 days  0 hours  0 minutes 10.5 seconds.
 Elapsed time:       0 days  0 hours  0 minutes  3.2 seconds.
 File lengths (MBytes):  RWF=     10 Int=      0 D2E=      0 Chk=      2 Scr=      1
 Normal termination of Gaussian 16 at Thu Mar 20 00:11:12 2025.
