 Entering Gaussian System, Link 0=g16
 Input=PFMS_1000K_step0035.gjf
 Output=PFMS_1000K_step0035.log
 Initial command:
 /apps/easybuild-2022/easybuild/software/Compiler/NVHPC/22.11-CUDA-11.7.0/Gaussian/g16c01-CUDA-11.7.0/g16/l1.exe "/tmp/Gau-270380.inp" -scrdir="/tmp/"
 Default is to use a total of   4 processors:
                                4 via shared-memory
                                1 via Linda
 Entering Link 1 = /apps/easybuild-2022/easybuild/software/Compiler/NVHPC/22.11-CUDA-11.7.0/Gaussian/g16c01-CUDA-11.7.0/g16/l1.exe PID=    270381.
  
 Copyright (c) 1988-2019, Gaussian, Inc.  All Rights Reserved.
  
 This is part of the Gaussian(R) 16 program.  It is based on
 the Gaussian(R) 09 system (copyright 2009, Gaussian, Inc.),
 the Gaussian(R) 03 system (copyright 2003, Gaussian, Inc.),
 the Gaussian(R) 98 system (copyright 1998, Gaussian, Inc.),
 the Gaussian(R) 94 system (copyright 1995, Gaussian, Inc.),
 the Gaussian 92(TM) system (copyright 1992, Gaussian, Inc.),
 the Gaussian 90(TM) system (copyright 1990, Gaussian, Inc.),
 the Gaussian 88(TM) system (copyright 1988, Gaussian, Inc.),
 the Gaussian 86(TM) system (copyright 1986, Carnegie Mellon
 University), and the Gaussian 82(TM) system (copyright 1983,
 Carnegie Mellon University). Gaussian is a federally registered
 trademark of Gaussian, Inc.
  
 This software contains proprietary and confidential information,
 including trade secrets, belonging to Gaussian, Inc.
  
 This software is provided under written license and may be
 used, copied, transmitted, or stored only in accord with that
 written license.
  
 The following legend is applicable only to US Government
 contracts under FAR:
  
                    RESTRICTED RIGHTS LEGEND
  
 Use, reproduction and disclosure by the US Government is
 subject to restrictions as set forth in subparagraphs (a)
 and (c) of the Commercial Computer Software - Restricted
 Rights clause in FAR 52.227-19.
  
 Gaussian, Inc.
 340 Quinnipiac St., Bldg. 40, Wallingford CT 06492
  
  
 ---------------------------------------------------------------
 Warning -- This program may not be used in any manner that
 competes with the business of Gaussian, Inc. or will provide
 assistance to any competitor of Gaussian, Inc.  The licensee
 of this program is prohibited from giving any competitor of
 Gaussian, Inc. access to this program.  By using this program,
 the user acknowledges that Gaussian, Inc. is engaged in the
 business of creating and licensing software in the field of
 computational chemistry and represents and warrants to the
 licensee that it is not a competitor of Gaussian, Inc. and that
 it will not use this program in any manner prohibited above.
 ---------------------------------------------------------------
  

 Cite this work as:
 Gaussian 16, Revision C.01,
 M. J. Frisch, G. W. Trucks, H. B. Schlegel, G. E. Scuseria, 
 M. A. Robb, J. R. Cheeseman, G. Scalmani, V. Barone, 
 G. A. Petersson, H. Nakatsuji, X. Li, M. Caricato, A. V. Marenich, 
 J. Bloino, B. G. Janesko, R. Gomperts, B. Mennucci, H. P. Hratchian, 
 J. V. Ortiz, A. F. Izmaylov, J. L. Sonnenberg, D. Williams-Young, 
 F. Ding, F. Lipparini, F. Egidi, J. Goings, B. Peng, A. Petrone, 
 T. Henderson, D. Ranasinghe, V. G. Zakrzewski, J. Gao, N. Rega, 
 G. Zheng, W. Liang, M. Hada, M. Ehara, K. Toyota, R. Fukuda, 
 J. Hasegawa, M. Ishida, T. Nakajima, Y. Honda, O. Kitao, H. Nakai, 
 T. Vreven, K. Throssell, J. A. Montgomery, Jr., J. E. Peralta, 
 F. Ogliaro, M. J. Bearpark, J. J. Heyd, E. N. Brothers, K. N. Kudin, 
 V. N. Staroverov, T. A. Keith, R. Kobayashi, J. Normand, 
 K. Raghavachari, A. P. Rendell, J. C. Burant, S. S. Iyengar, 
 J. Tomasi, M. Cossi, J. M. Millam, M. Klene, C. Adamo, R. Cammi, 
 J. W. Ochterski, R. L. Martin, K. Morokuma, O. Farkas, 
 J. B. Foresman, and D. J. Fox, Gaussian, Inc., Wallingford CT, 2019.
 
 ******************************************
 Gaussian 16:  ES64L-G16RevC.01  3-Jul-2019
                20-Mar-2025 
 ******************************************
 %chk=PFMS_1000K_step0035.chk
 %mem=8GB
 %nprocshared=4
 Will use up to    4 processors via shared memory.
 -----------------------------------------
 # B3LYP/6-31G(d) pop=full density=current
 -----------------------------------------
 1/30=1,38=1,172=1/1;
 2/12=2,17=6,18=5,40=1/2;
 3/5=1,6=6,7=1,11=2,25=1,30=1,74=-5/1,2,3;
 4//1;
 5/5=2,38=5/2;
 6/7=3,22=-1,28=1/1;
 99/5=1,9=1/99;
 -----------------
 PFMS Time step 35
 -----------------
 Symbolic Z-matrix:
 Charge =  0 Multiplicity = 1
 C                    -0.91523   0.02593  -0.22079 
 F                    -1.05689   0.1615   -1.62173 
 F                    -1.58523   1.05055   0.35441 
 F                    -1.67767  -1.14763   0.06044 
 S                     0.85534  -0.17699   0.27038 
 O                     1.02204  -0.17981   1.72904 
 O                     1.53019  -1.04642  -0.53824 
 O                     1.44237   1.36066  -0.18431 
 H                     1.79739   1.9581    0.82833 
 
                          Input orientation:                          
 ---------------------------------------------------------------------
 Center     Atomic      Atomic             Coordinates (Angstroms)
 Number     Number       Type             X           Y           Z
 ---------------------------------------------------------------------
      1          6           0       -0.915228    0.025929   -0.220787
      2          9           0       -1.056889    0.161500   -1.621726
      3          9           0       -1.585232    1.050550    0.354411
      4          9           0       -1.677668   -1.147627    0.060444
      5         16           0        0.855344   -0.176994    0.270378
      6          8           0        1.022035   -0.179807    1.729043
      7          8           0        1.530192   -1.046415   -0.538244
      8          8           0        1.442372    1.360662   -0.184311
      9          1           0        1.797386    1.958101    0.828328
 ---------------------------------------------------------------------
                    Distance matrix (angstroms):
                    1          2          3          4          5
     1  C    0.000000
     2  F    1.414594   0.000000
     3  F    1.352629   2.230398   0.000000
     4  F    1.427459   2.220107   2.219672   0.000000
     5  S    1.848607   2.711323   2.733192   2.720726   0.000000
     6  O    2.756293   3.958038   3.193937   3.318026   1.468161
     7  O    2.689011   3.053847   3.860047   3.264818   1.365717
     8  O    2.709450   3.122572   3.090757   4.010744   1.707551
     9  H    3.491734   4.168624   3.534169   4.723473   2.399455
                    6          7          8          9
     6  O    0.000000
     7  O    2.479884   0.000000
     8  O    2.492118   2.434543   0.000000
     9  H    2.446039   3.311499   1.228172   0.000000
 Stoichiometry    CHF3O3S
 Framework group  C1[X(CHF3O3S)]
 Deg. of freedom    21
 Full point group                 C1      NOp   1
 Largest Abelian subgroup         C1      NOp   1
 Largest concise Abelian subgroup C1      NOp   1
                         Standard orientation:                         
 ---------------------------------------------------------------------
 Center     Atomic      Atomic             Coordinates (Angstroms)
 Number     Number       Type             X           Y           Z
 ---------------------------------------------------------------------
      1          6           0       -0.982835    0.059319    0.031969
      2          9           0       -1.498513    0.079913   -1.285122
      3          9           0       -1.423927    1.175171    0.656403
      4          9           0       -1.688289   -1.028533    0.629090
      5         16           0        0.844087   -0.222644    0.046025
      6          8           0        1.405408   -0.107968    1.397789
      7          8           0        1.232292   -1.205290   -0.819358
      8          8           0        1.349028    1.223894   -0.707826
      9          1           0        1.994358    1.882337    0.103598
 ---------------------------------------------------------------------
 Rotational constants (GHZ):           2.5771500           1.4209585           1.4138518
 Standard basis: 6-31G(d) (6D, 7F)
 There are   126 symmetry adapted cartesian basis functions of A   symmetry.
 There are   126 symmetry adapted basis functions of A   symmetry.
   126 basis functions,   252 primitive gaussians,   126 cartesian basis functions
    37 alpha electrons       37 beta electrons
       nuclear repulsion energy       550.7240239144 Hartrees.
 NAtoms=    9 NActive=    9 NUniq=    9 SFac= 1.00D+00 NAtFMM=   60 NAOKFM=F Big=F
 Integral buffers will be    131072 words long.
 Raffenetti 2 integral format.
 Two-electron integral symmetry is turned on.
 One-electron integrals computed using PRISM.
 NBasis=   126 RedAO= T EigKep=  2.65D-03  NBF=   126
 NBsUse=   126 1.00D-06 EigRej= -1.00D+00 NBFU=   126
 ExpMin= 1.17D-01 ExpMax= 2.19D+04 ExpMxC= 3.30D+03 IAcc=3 IRadAn=         5 AccDes= 0.00D+00
 Harris functional with IExCor=  402 and IRadAn=       5 diagonalized for initial guess.
 HarFok:  IExCor=  402 AccDes= 0.00D+00 IRadAn=         5 IDoV= 1 UseB2=F ITyADJ=14
 ICtDFT=  3500011 ScaDFX=  1.000000  1.000000  1.000000  1.000000
 FoFCou: FMM=F IPFlag=           0 FMFlag=      100000 FMFlg1=           0
         NFxFlg=           0 DoJE=T BraDBF=F KetDBF=T FulRan=T
         wScrn=  0.000000 ICntrl=       500 IOpCl=  0 I1Cent=   200000004 NGrid=           0
         NMat0=    1 NMatS0=      1 NMatT0=    0 NMatD0=    1 NMtDS0=    0 NMtDT0=    0
 Petite list used in FoFCou.
 Keep R1 ints in memory in canonical form, NReq=35818892.
 Requested convergence on RMS density matrix=1.00D-08 within 128 cycles.
 Requested convergence on MAX density matrix=1.00D-06.
 Requested convergence on             energy=1.00D-06.
 No special actions if energy rises.
 Integral accuracy reduced to 1.0D-05 until final iterations.
 Initial convergence to 1.0D-05 achieved.  Increase integral accuracy.
 SCF Done:  E(RB3LYP) =  -961.930811657     A.U. after   15 cycles
            NFock= 15  Conv=0.51D-08     -V/T= 2.0064

 **********************************************************************

            Population analysis using the SCF Density.

 **********************************************************************

 Orbital symmetries:
       Occupied  (A) (A) (A) (A) (A) (A) (A) (A) (A) (A) (A) (A)
                 (A) (A) (A) (A) (A) (A) (A) (A) (A) (A) (A) (A)
                 (A) (A) (A) (A) (A) (A) (A) (A) (A) (A) (A) (A)
                 (A)
       Virtual   (A) (A) (A) (A) (A) (A) (A) (A) (A) (A) (A) (A)
                 (A) (A) (A) (A) (A) (A) (A) (A) (A) (A) (A) (A)
                 (A) (A) (A) (A) (A) (A) (A) (A) (A) (A) (A) (A)
                 (A) (A) (A) (A) (A) (A) (A) (A) (A) (A) (A) (A)
                 (A) (A) (A) (A) (A) (A) (A) (A) (A) (A) (A) (A)
                 (A) (A) (A) (A) (A) (A) (A) (A) (A) (A) (A) (A)
                 (A) (A) (A) (A) (A) (A) (A) (A) (A) (A) (A) (A)
                 (A) (A) (A) (A) (A)
 The electronic state is 1-A.
 Alpha  occ. eigenvalues --  -89.17270 -24.78599 -24.76066 -24.75762 -19.23745
 Alpha  occ. eigenvalues --  -19.21189 -19.19620 -10.50159  -8.19998  -6.16481
 Alpha  occ. eigenvalues --   -6.16369  -6.16313  -1.32549  -1.24925  -1.22552
 Alpha  occ. eigenvalues --   -1.20349  -1.07431  -1.02031  -0.79372  -0.68093
 Alpha  occ. eigenvalues --   -0.61534  -0.60653  -0.59390  -0.55106  -0.51192
 Alpha  occ. eigenvalues --   -0.49731  -0.48739  -0.48101  -0.46184  -0.45534
 Alpha  occ. eigenvalues --   -0.44513  -0.42921  -0.40486  -0.38972  -0.36978
 Alpha  occ. eigenvalues --   -0.35659  -0.34419
 Alpha virt. eigenvalues --   -0.06144  -0.03221   0.00114   0.01772   0.08651
 Alpha virt. eigenvalues --    0.11491   0.13702   0.19247   0.28480   0.31093
 Alpha virt. eigenvalues --    0.33799   0.40175   0.45776   0.49707   0.51853
 Alpha virt. eigenvalues --    0.64751   0.66882   0.68919   0.75018   0.76022
 Alpha virt. eigenvalues --    0.79824   0.85955   0.87316   0.92734   0.96698
 Alpha virt. eigenvalues --    0.97473   0.99860   1.01206   1.03657   1.08039
 Alpha virt. eigenvalues --    1.09507   1.10032   1.13061   1.16929   1.18528
 Alpha virt. eigenvalues --    1.22736   1.27048   1.28878   1.32426   1.34656
 Alpha virt. eigenvalues --    1.35242   1.35888   1.38022   1.52435   1.54941
 Alpha virt. eigenvalues --    1.57420   1.60147   1.68748   1.71104   1.73253
 Alpha virt. eigenvalues --    1.74919   1.76817   1.78435   1.78795   1.79750
 Alpha virt. eigenvalues --    1.81284   1.82584   1.83192   1.86303   1.90343
 Alpha virt. eigenvalues --    1.92041   1.94412   1.97096   1.98630   2.00899
 Alpha virt. eigenvalues --    2.05222   2.09043   2.11028   2.14241   2.17077
 Alpha virt. eigenvalues --    2.18377   2.29335   2.37285   2.57187   2.61509
 Alpha virt. eigenvalues --    2.64116   2.72683   2.81824   2.85252   3.00270
 Alpha virt. eigenvalues --    3.02606   3.54603   3.84732   3.85821   3.94017
 Alpha virt. eigenvalues --    4.23454   4.28678   4.34254   5.06185
     Molecular Orbital Coefficients:
                           1         2         3         4         5
                           O         O         O         O         O
     Eigenvalues --   -89.17270 -24.78599 -24.76066 -24.75762 -19.23745
   1 1   C  1S         -0.00003  -0.00003  -0.00003  -0.00002  -0.00003
   2        2S         -0.00007   0.00006  -0.00014  -0.00015  -0.00016
   3        2PX         0.00005  -0.00031  -0.00028  -0.00032   0.00003
   4        2PY        -0.00000   0.00054   0.00004  -0.00037   0.00000
   5        2PZ         0.00000   0.00029  -0.00049   0.00022   0.00002
   6        3S          0.00080   0.00039   0.00025   0.00004   0.00103
   7        3PX         0.00037   0.00049   0.00044   0.00038   0.00048
   8        3PY        -0.00013  -0.00019  -0.00012   0.00003  -0.00063
   9        3PZ        -0.00005  -0.00002  -0.00006  -0.00005  -0.00012
  10        4XX        -0.00004   0.00006   0.00013   0.00022   0.00005
  11        4YY        -0.00000   0.00035   0.00005   0.00041  -0.00002
  12        4ZZ        -0.00000   0.00012   0.00057   0.00017  -0.00002
  13        4XY         0.00002  -0.00016   0.00000   0.00029   0.00004
  14        4XZ         0.00000  -0.00010   0.00027  -0.00016  -0.00001
  15        4YZ         0.00000   0.00021  -0.00001  -0.00021  -0.00003
  16 2   F  1S          0.00002   0.00004   0.99303  -0.00022  -0.00004
  17        2S          0.00012   0.00007   0.01973   0.00005  -0.00019
  18        2PX         0.00001   0.00000   0.00027  -0.00001  -0.00004
  19        2PY        -0.00001   0.00001  -0.00000  -0.00002  -0.00001
  20        2PZ        -0.00000   0.00002   0.00065   0.00002  -0.00000
  21        3S         -0.00043  -0.00008   0.01462  -0.00002   0.00055
  22        3PX        -0.00013  -0.00002  -0.00015   0.00003   0.00012
  23        3PY         0.00003  -0.00007   0.00001   0.00010   0.00010
  24        3PZ        -0.00006  -0.00012  -0.00046  -0.00010  -0.00001
  25        4XX         0.00007   0.00005  -0.00796   0.00004  -0.00011
  26        4YY         0.00006  -0.00001  -0.00793  -0.00002  -0.00018
  27        4ZZ         0.00007  -0.00007  -0.00831  -0.00006  -0.00016
  28        4XY         0.00000   0.00001  -0.00000  -0.00003   0.00001
  29        4XZ        -0.00003  -0.00002  -0.00019   0.00001  -0.00000
  30        4YZ         0.00001  -0.00008   0.00001   0.00009   0.00003
  31 3   F  1S          0.00001   0.99301  -0.00004  -0.00003  -0.00005
  32        2S          0.00008   0.01973   0.00004   0.00007  -0.00028
  33        2PX         0.00002   0.00028   0.00000  -0.00000  -0.00002
  34        2PY         0.00000  -0.00064  -0.00001  -0.00003   0.00001
  35        2PZ         0.00000  -0.00036  -0.00003   0.00000   0.00001
  36        3S         -0.00029   0.01473   0.00006  -0.00004   0.00097
  37        3PX        -0.00013  -0.00017  -0.00001   0.00001   0.00010
  38        3PY         0.00004   0.00046   0.00003   0.00014  -0.00008
  39        3PZ         0.00001   0.00025   0.00014  -0.00002  -0.00010
  40        4XX         0.00004  -0.00797   0.00003   0.00004  -0.00016
  41        4YY         0.00005  -0.00828  -0.00000  -0.00011  -0.00020
  42        4ZZ         0.00005  -0.00805  -0.00011   0.00004  -0.00020
  43        4XY         0.00003   0.00016   0.00002  -0.00002  -0.00000
  44        4XZ         0.00002   0.00009  -0.00002   0.00003  -0.00001
  45        4YZ         0.00001  -0.00021  -0.00007   0.00001   0.00002
  46 4   F  1S          0.00002   0.00004   0.00022   0.99303   0.00004
  47        2S          0.00013   0.00010   0.00007   0.01971   0.00024
  48        2PX         0.00002   0.00001   0.00000   0.00037   0.00003
  49        2PY        -0.00001   0.00002   0.00001   0.00052   0.00001
  50        2PZ        -0.00000   0.00000  -0.00003  -0.00027  -0.00002
  51        3S         -0.00047  -0.00019  -0.00007   0.01473  -0.00087
  52        3PX        -0.00015  -0.00005  -0.00002  -0.00020  -0.00019
  53        3PY        -0.00003  -0.00016  -0.00003  -0.00032  -0.00008
  54        3PZ         0.00004  -0.00001   0.00016   0.00017   0.00012
  55        4XX         0.00006   0.00006   0.00004  -0.00802   0.00016
  56        4YY         0.00009  -0.00009   0.00003  -0.00817   0.00018
  57        4ZZ         0.00007   0.00006  -0.00009  -0.00801   0.00016
  58        4XY        -0.00002  -0.00003  -0.00002  -0.00020  -0.00003
  59        4XZ         0.00002   0.00002   0.00000   0.00011   0.00002
  60        4YZ        -0.00001  -0.00002   0.00007   0.00015   0.00002
  61 5   S  1S          0.99612   0.00000   0.00000   0.00000   0.00000
  62        2S          0.01487   0.00005   0.00005   0.00003   0.00006
  63        2PX        -0.00001   0.00001   0.00001   0.00001  -0.00000
  64        2PY         0.00002  -0.00000  -0.00000  -0.00000  -0.00007
  65        2PZ        -0.00001   0.00000  -0.00000  -0.00000   0.00004
  66        3S         -0.02413   0.00022   0.00019   0.00008  -0.00000
  67        3PX         0.00008  -0.00009  -0.00009  -0.00012  -0.00011
  68        3PY        -0.00006   0.00003   0.00004   0.00002   0.00018
  69        3PZ         0.00003  -0.00003   0.00002   0.00001  -0.00008
  70        4S          0.00153  -0.00145  -0.00132  -0.00102  -0.00338
  71        4PX        -0.00003   0.00045   0.00052   0.00049   0.00030
  72        4PY        -0.00005  -0.00070  -0.00012   0.00023  -0.00083
  73        4PZ         0.00008  -0.00031   0.00080  -0.00011   0.00119
  74        5XX         0.00849   0.00003   0.00004   0.00003   0.00017
  75        5YY         0.00857   0.00005   0.00004   0.00004   0.00032
  76        5ZZ         0.00862   0.00002   0.00004   0.00002   0.00016
  77        5XY        -0.00002  -0.00001  -0.00001  -0.00000   0.00004
  78        5XZ         0.00001  -0.00001   0.00000  -0.00001  -0.00002
  79        5YZ         0.00005   0.00000  -0.00001  -0.00002  -0.00016
  80 6   O  1S          0.00001  -0.00004   0.00002  -0.00003  -0.00005
  81        2S          0.00000  -0.00018   0.00007  -0.00011  -0.00005
  82        2PX         0.00003   0.00003   0.00001   0.00003  -0.00001
  83        2PY         0.00001  -0.00002  -0.00001   0.00001  -0.00003
  84        2PZ         0.00011   0.00001  -0.00000   0.00001   0.00000
  85        3S          0.00039   0.00094  -0.00039   0.00052   0.00042
  86        3PX        -0.00007  -0.00021  -0.00003  -0.00018  -0.00004
  87        3PY        -0.00002   0.00014   0.00005  -0.00008   0.00015
  88        3PZ        -0.00029  -0.00018   0.00001  -0.00010  -0.00020
  89        4XX         0.00001  -0.00011   0.00006  -0.00007  -0.00002
  90        4YY         0.00005  -0.00012   0.00006  -0.00008  -0.00007
  91        4ZZ        -0.00017  -0.00012   0.00006  -0.00008  -0.00004
  92        4XY        -0.00001  -0.00001  -0.00000   0.00001  -0.00003
  93        4XZ        -0.00012   0.00002   0.00000   0.00002   0.00002
  94        4YZ        -0.00002  -0.00002  -0.00001   0.00001   0.00004
  95 7   O  1S          0.00001   0.00001  -0.00004  -0.00003  -0.00002
  96        2S         -0.00006   0.00004  -0.00018  -0.00013  -0.00023
  97        2PX         0.00004   0.00001   0.00001   0.00003   0.00002
  98        2PY        -0.00014  -0.00001  -0.00002   0.00000  -0.00001
  99        2PZ        -0.00013   0.00001   0.00001  -0.00002   0.00003
 100        3S          0.00049  -0.00022   0.00096   0.00064   0.00157
 101        3PX        -0.00004  -0.00005  -0.00017  -0.00018  -0.00020
 102        3PY         0.00025   0.00006   0.00022   0.00005   0.00033
 103        3PZ         0.00020  -0.00003  -0.00003   0.00015   0.00002
 104        4XX         0.00003   0.00003  -0.00010  -0.00008  -0.00012
 105        4YY        -0.00007   0.00005  -0.00009  -0.00009  -0.00023
 106        4ZZ        -0.00003   0.00003  -0.00013  -0.00008  -0.00016
 107        4XY         0.00007  -0.00000  -0.00002  -0.00001  -0.00005
 108        4XZ         0.00006   0.00000  -0.00000  -0.00002   0.00002
 109        4YZ        -0.00013  -0.00000  -0.00001   0.00001   0.00002
 110 8   O  1S         -0.00002  -0.00003  -0.00003   0.00000   0.99284
 111        2S         -0.00002  -0.00014  -0.00015   0.00000   0.02571
 112        2PX        -0.00003   0.00001   0.00001   0.00001   0.00014
 113        2PY        -0.00003   0.00002   0.00002  -0.00000  -0.00013
 114        2PZ        -0.00000  -0.00001   0.00001   0.00000   0.00082
 115        3S          0.00054   0.00070   0.00077   0.00001   0.01147
 116        3PX        -0.00002  -0.00015  -0.00014  -0.00007  -0.00031
 117        3PY        -0.00023  -0.00016  -0.00022  -0.00000  -0.00055
 118        3PZ         0.00019   0.00015  -0.00001   0.00000   0.00009
 119        4XX        -0.00006  -0.00007  -0.00009   0.00000  -0.00790
 120        4YY        -0.00010  -0.00009  -0.00008  -0.00000  -0.00790
 121        4ZZ        -0.00005  -0.00006  -0.00011   0.00000  -0.00794
 122        4XY        -0.00002   0.00001   0.00003   0.00001   0.00003
 123        4XZ         0.00003  -0.00002  -0.00000  -0.00000  -0.00000
 124        4YZ         0.00005  -0.00001   0.00001   0.00000   0.00002
 125 9   H  1S         -0.00006  -0.00002  -0.00001   0.00001   0.00021
 126        2S         -0.00008   0.00010   0.00001  -0.00002  -0.00068
                           6         7         8         9        10
                           O         O         O         O         O
     Eigenvalues --   -19.21189 -19.19620 -10.50159  -8.19998  -6.16481
   1 1   C  1S         -0.00001  -0.00001   0.99339   0.00001  -0.00001
   2        2S         -0.00006  -0.00009   0.04653   0.00074  -0.00018
   3        2PX         0.00003   0.00001  -0.00061  -0.00012  -0.00006
   4        2PY         0.00004  -0.00001   0.00035  -0.00005  -0.00014
   5        2PZ         0.00003  -0.00005   0.00012  -0.00002   0.00004
   6        3S          0.00036   0.00048  -0.01282  -0.00185   0.00010
   7        3PX         0.00022   0.00037  -0.00287  -0.00180  -0.00016
   8        3PY        -0.00034   0.00038   0.00046   0.00106  -0.00177
   9        3PZ        -0.00076   0.00059   0.00027   0.00051   0.00018
  10        4XX         0.00003   0.00004  -0.00826  -0.00068   0.00001
  11        4YY        -0.00003   0.00001  -0.00769  -0.00013   0.00014
  12        4ZZ         0.00002  -0.00002  -0.00783  -0.00017  -0.00002
  13        4XY         0.00001  -0.00002  -0.00007   0.00005  -0.00034
  14        4XZ         0.00003  -0.00001  -0.00007  -0.00003   0.00012
  15        4YZ        -0.00001   0.00002   0.00016   0.00000  -0.00015
  16 2   F  1S          0.00000   0.00001  -0.00011  -0.00016   0.00001
  17        2S          0.00002   0.00003  -0.00037  -0.00091   0.00005
  18        2PX        -0.00003   0.00004   0.00001  -0.00020   0.00000
  19        2PY        -0.00001   0.00000   0.00000   0.00006  -0.00013
  20        2PZ         0.00002  -0.00001   0.00001  -0.00002   0.00002
  21        3S         -0.00022   0.00003   0.00189   0.00298  -0.00016
  22        3PX         0.00007  -0.00012   0.00003   0.00103   0.00003
  23        3PY         0.00004  -0.00004  -0.00003  -0.00029   0.00060
  24        3PZ        -0.00015   0.00008  -0.00037   0.00031  -0.00010
  25        4XX         0.00004   0.00002  -0.00024  -0.00049   0.00008
  26        4YY        -0.00003   0.00005  -0.00008  -0.00067   0.00004
  27        4ZZ        -0.00004   0.00006  -0.00090  -0.00066   0.00002
  28        4XY        -0.00001   0.00000   0.00001  -0.00004   0.00013
  29        4XZ        -0.00002  -0.00000  -0.00021   0.00020  -0.00001
  30        4YZ         0.00002  -0.00002  -0.00000  -0.00007   0.00008
  31 3   F  1S          0.00000  -0.00000  -0.00008  -0.00010  -0.00008
  32        2S         -0.00000   0.00001  -0.00012  -0.00053  -0.00049
  33        2PX         0.00004  -0.00003   0.00000  -0.00021  -0.00004
  34        2PY         0.00001  -0.00001  -0.00003   0.00001  -0.00005
  35        2PZ        -0.00001   0.00000  -0.00001  -0.00001   0.00009
  36        3S          0.00014  -0.00018   0.00087   0.00144   0.00182
  37        3PX        -0.00010   0.00003  -0.00009   0.00095   0.00029
  38        3PY        -0.00011   0.00011   0.00075  -0.00011   0.00008
  39        3PZ         0.00002   0.00001   0.00039   0.00002  -0.00045
  40        4XX         0.00000   0.00002  -0.00005  -0.00026  -0.00025
  41        4YY         0.00006  -0.00005  -0.00064  -0.00042  -0.00039
  42        4ZZ         0.00002  -0.00003  -0.00012  -0.00047  -0.00029
  43        4XY         0.00000   0.00001   0.00021  -0.00017   0.00001
  44        4XZ        -0.00000   0.00002   0.00011  -0.00008  -0.00010
  45        4YZ        -0.00001   0.00001  -0.00048   0.00001  -0.00001
  46 4   F  1S         -0.00003  -0.00003  -0.00011  -0.00013   0.00019
  47        2S         -0.00018  -0.00015  -0.00037  -0.00076   0.00107
  48        2PX        -0.00003  -0.00002  -0.00001  -0.00018   0.00012
  49        2PY        -0.00001   0.00000   0.00002   0.00003  -0.00003
  50        2PZ        -0.00001   0.00001  -0.00001   0.00002  -0.00002
  51        3S          0.00056   0.00049   0.00184   0.00248  -0.00375
  52        3PX         0.00010   0.00007   0.00003   0.00097  -0.00080
  53        3PY         0.00008  -0.00001  -0.00038  -0.00001  -0.00008
  54        3PZ         0.00007  -0.00010   0.00014  -0.00023   0.00025
  55        4XX        -0.00012  -0.00010  -0.00031  -0.00033   0.00054
  56        4YY        -0.00012  -0.00015  -0.00069  -0.00062   0.00081
  57        4ZZ        -0.00018  -0.00011  -0.00027  -0.00052   0.00072
  58        4XY        -0.00000  -0.00000  -0.00027   0.00012  -0.00002
  59        4XZ        -0.00001   0.00000   0.00014  -0.00010   0.00005
  60        4YZ         0.00002  -0.00003   0.00035   0.00000  -0.00004
  61 5   S  1S          0.00001   0.00001  -0.00001  -0.27989   0.00037
  62        2S         -0.00007  -0.00004  -0.00020   1.02294  -0.00159
  63        2PX         0.00004   0.00001  -0.00001  -0.00021   0.22885
  64        2PY        -0.00008  -0.00001   0.00001   0.00103   0.89949
  65        2PZ        -0.00006  -0.00000   0.00001  -0.00152  -0.34762
  66        3S          0.00090   0.00074  -0.00066   0.07297  -0.00107
  67        3PX        -0.00012  -0.00001  -0.00010   0.00033   0.00674
  68        3PY         0.00011   0.00009  -0.00009  -0.00039   0.02809
  69        3PZ         0.00005   0.00023  -0.00001  -0.00042  -0.01023
  70        4S         -0.00338  -0.00319   0.00769  -0.00790   0.00125
  71        4PX        -0.00038  -0.00063  -0.00305   0.00168  -0.00188
  72        4PY         0.00156  -0.00086   0.00140  -0.00130  -0.00444
  73        4PZ         0.00221  -0.00220  -0.00042  -0.00038   0.00221
  74        5XX        -0.00026  -0.00013  -0.00012  -0.01532  -0.00025
  75        5YY        -0.00039  -0.00018  -0.00019  -0.01495   0.00071
  76        5ZZ        -0.00037  -0.00007  -0.00006  -0.01461  -0.00036
  77        5XY         0.00008   0.00003   0.00005  -0.00016   0.00085
  78        5XZ         0.00004   0.00004   0.00001   0.00009  -0.00033
  79        5YZ        -0.00016   0.00000   0.00006   0.00051  -0.00152
  80 6   O  1S         -0.00017   0.99275   0.00006  -0.00009   0.00009
  81        2S          0.00009   0.02569   0.00029   0.00042   0.00002
  82        2PX        -0.00004  -0.00040  -0.00004   0.00000  -0.00003
  83        2PY         0.00006  -0.00009   0.00004  -0.00010  -0.00001
  84        2PZ         0.00001  -0.00089   0.00000  -0.00030   0.00008
  85        3S         -0.00046   0.01257  -0.00169  -0.00318   0.00007
  86        3PX         0.00019  -0.00027   0.00057   0.00057  -0.00026
  87        3PY        -0.00029   0.00009  -0.00024   0.00058  -0.00077
  88        3PZ        -0.00015  -0.00058   0.00039   0.00289  -0.00063
  89        4XX         0.00008  -0.00809   0.00019   0.00028   0.00015
  90        4YY         0.00004  -0.00809   0.00011   0.00022   0.00013
  91        4ZZ         0.00009  -0.00806   0.00014   0.00018  -0.00011
  92        4XY         0.00002  -0.00001  -0.00000  -0.00001   0.00027
  93        4XZ         0.00001   0.00001  -0.00006   0.00005   0.00016
  94        4YZ        -0.00002  -0.00002   0.00005  -0.00001   0.00062
  95 7   O  1S          0.99265   0.00021   0.00005  -0.00020   0.00032
  96        2S          0.02568   0.00007   0.00025   0.00088  -0.00029
  97        2PX        -0.00040  -0.00005  -0.00002  -0.00008   0.00006
  98        2PY         0.00088   0.00003   0.00002   0.00047  -0.00032
  99        2PZ         0.00082  -0.00004  -0.00003   0.00050  -0.00028
 100        3S          0.01373  -0.00027  -0.00159  -0.00559   0.00211
 101        3PX        -0.00029   0.00021   0.00048   0.00050  -0.00060
 102        3PY         0.00071   0.00002  -0.00046  -0.00258   0.00094
 103        3PZ         0.00042   0.00035  -0.00002  -0.00256   0.00181
 104        4XX        -0.00831   0.00005   0.00019   0.00036   0.00009
 105        4YY        -0.00816   0.00007   0.00005   0.00047  -0.00061
 106        4ZZ        -0.00822   0.00004   0.00012   0.00045   0.00031
 107        4XY        -0.00008   0.00002   0.00003  -0.00013   0.00006
 108        4XZ        -0.00006  -0.00003   0.00003  -0.00013  -0.00013
 109        4YZ         0.00016   0.00003   0.00005   0.00023  -0.00018
 110 8   O  1S         -0.00007   0.00000   0.00008   0.00002   0.00006
 111        2S         -0.00013  -0.00014   0.00038   0.00032   0.00113
 112        2PX        -0.00001  -0.00001  -0.00000   0.00015   0.00006
 113        2PY         0.00003  -0.00001  -0.00004   0.00009   0.00004
 114        2PZ         0.00005  -0.00005  -0.00000   0.00003   0.00011
 115        3S          0.00087   0.00088  -0.00221  -0.00144  -0.00393
 116        3PX         0.00001   0.00001   0.00038  -0.00011   0.00101
 117        3PY        -0.00031  -0.00010   0.00060   0.00153   0.00325
 118        3PZ        -0.00021   0.00039  -0.00025  -0.00103  -0.00230
 119        4XX        -0.00008  -0.00008   0.00030   0.00026   0.00066
 120        4YY        -0.00015  -0.00010   0.00017  -0.00039  -0.00066
 121        4ZZ        -0.00013  -0.00012   0.00014   0.00013   0.00033
 122        4XY         0.00002  -0.00001  -0.00004  -0.00024  -0.00071
 123        4XZ         0.00004  -0.00004   0.00001   0.00005   0.00030
 124        4YZ        -0.00001  -0.00001  -0.00001   0.00036   0.00089
 125 9   H  1S          0.00002  -0.00004   0.00008   0.00011   0.00026
 126        2S         -0.00008   0.00008  -0.00027   0.00069   0.00072
                          11        12        13        14        15
                           O         O         O         O         O
     Eigenvalues --    -6.16369  -6.16313  -1.32549  -1.24925  -1.22552
   1 1   C  1S          0.00002  -0.00012  -0.09101   0.02062  -0.00255
   2        2S          0.00095  -0.00180   0.18724  -0.04302   0.00538
   3        2PX        -0.00009   0.00006  -0.05388   0.01809  -0.01256
   4        2PY        -0.00005  -0.00000   0.04535   0.10620  -0.07219
   5        2PZ        -0.00008  -0.00002   0.01935   0.08148   0.10026
   6        3S         -0.00247   0.00575   0.01756  -0.01119   0.00167
   7        3PX        -0.00218   0.00344   0.01827  -0.00561   0.00050
   8        3PY        -0.00088  -0.00146  -0.00375  -0.00359  -0.00033
   9        3PZ        -0.00255  -0.00214  -0.00034  -0.00460  -0.00136
  10        4XX        -0.00089   0.00112  -0.00899  -0.00109   0.00228
  11        4YY        -0.00021   0.00001   0.00385   0.01190   0.01079
  12        4ZZ         0.00002   0.00016  -0.00285  -0.00944  -0.01329
  13        4XY         0.00001  -0.00024  -0.00449  -0.01217   0.01002
  14        4XZ        -0.00028  -0.00018  -0.00254  -0.00779  -0.01202
  15        4YZ        -0.00006   0.00004   0.00746   0.01553  -0.00865
  16 2   F  1S          0.00001   0.00031  -0.09109   0.14054   0.14752
  17        2S          0.00012   0.00180   0.19747  -0.31385  -0.33184
  18        2PX        -0.00015   0.00027   0.01589  -0.02136  -0.02292
  19        2PY        -0.00004  -0.00007   0.00175   0.00888  -0.00589
  20        2PZ         0.00000   0.00007   0.04931  -0.05025  -0.04330
  21        3S         -0.00086  -0.00631   0.20114  -0.30237  -0.31658
  22        3PX         0.00054  -0.00170   0.00907  -0.01237  -0.01407
  23        3PY         0.00020   0.00040   0.00184   0.00635  -0.00407
  24        3PZ        -0.00019  -0.00087   0.03636  -0.03010  -0.02469
  25        4XX         0.00010   0.00095   0.00182  -0.00592  -0.00699
  26        4YY        -0.00004   0.00117  -0.00013  -0.00360  -0.00448
  27        4ZZ         0.00003   0.00123   0.01358  -0.01404  -0.01346
  28        4XY         0.00003   0.00006   0.00002   0.00047   0.00001
  29        4XZ         0.00011  -0.00032   0.00539  -0.00510  -0.00506
  30        4YZ         0.00003   0.00009   0.00029   0.00142  -0.00081
  31 3   F  1S         -0.00026   0.00007  -0.16723  -0.14506   0.01306
  32        2S         -0.00149   0.00042   0.37135   0.32945  -0.02996
  33        2PX        -0.00022   0.00022   0.02762   0.02320  -0.00312
  34        2PY         0.00010  -0.00000  -0.07430  -0.04056  -0.00355
  35        2PZ        -0.00006  -0.00007  -0.04182  -0.02077   0.01233
  36        3S          0.00520  -0.00105   0.35366   0.30393  -0.02694
  37        3PX         0.00134  -0.00106   0.01348   0.01316  -0.00193
  38        3PY        -0.00086   0.00008  -0.04424  -0.01810  -0.00327
  39        3PZ         0.00012   0.00041  -0.02530  -0.00829   0.00798
  40        4XX        -0.00081   0.00019   0.00580   0.00766  -0.00084
  41        4YY        -0.00093   0.00031   0.01727   0.01101   0.00050
  42        4ZZ        -0.00107   0.00030   0.00787   0.00701  -0.00217
  43        4XY        -0.00027   0.00016  -0.00592  -0.00357   0.00024
  44        4XZ        -0.00006   0.00015  -0.00327  -0.00182   0.00056
  45        4YZ        -0.00005  -0.00009   0.00903   0.00303  -0.00124
  46 4   F  1S         -0.00013   0.00017  -0.08610   0.10566  -0.17766
  47        2S         -0.00073   0.00099   0.18585  -0.23541   0.39881
  48        2PX        -0.00018   0.00024   0.02129  -0.02163   0.03382
  49        2PY        -0.00006  -0.00004   0.03973  -0.02646   0.04479
  50        2PZ        -0.00011  -0.00011  -0.01931   0.02498  -0.01896
  51        3S          0.00236  -0.00325   0.19148  -0.22784   0.38211
  52        3PX         0.00099  -0.00132   0.01366  -0.01302   0.02081
  53        3PY         0.00039   0.00006   0.03023  -0.01564   0.02646
  54        3PZ         0.00050   0.00070  -0.01453   0.01655  -0.01031
  55        4XX        -0.00032   0.00045   0.00303  -0.00548   0.00993
  56        4YY        -0.00050   0.00083   0.00889  -0.00703   0.01321
  57        4ZZ        -0.00062   0.00064   0.00202  -0.00510   0.00680
  58        4XY         0.00018  -0.00013   0.00609  -0.00400   0.00640
  59        4XZ         0.00003   0.00021  -0.00319   0.00285  -0.00329
  60        4YZ         0.00008   0.00003  -0.00554   0.00423  -0.00431
  61 5   S  1S         -0.00023  -0.00033   0.00488  -0.00439   0.00023
  62        2S          0.00073   0.00137  -0.02310   0.01980  -0.00097
  63        2PX        -0.51533   0.81500   0.00683  -0.00125   0.00053
  64        2PY         0.41559   0.01042  -0.00030  -0.00498   0.00158
  65        2PZ         0.73698   0.56355   0.00070  -0.00424  -0.00299
  66        3S         -0.00069  -0.00053   0.03664  -0.03907   0.00239
  67        3PX        -0.01618   0.02571  -0.01601   0.00373  -0.00100
  68        3PY         0.01448   0.00062   0.00100   0.00988  -0.00324
  69        3PZ         0.02472   0.01873  -0.00141   0.00920   0.00652
  70        4S         -0.00319   0.00081   0.01105   0.00179  -0.00017
  71        4PX         0.00275  -0.00364  -0.00389   0.00362  -0.00201
  72        4PY        -0.00102   0.00042   0.00510   0.01317  -0.00645
  73        4PZ        -0.00101  -0.00133   0.00210   0.01229   0.01186
  74        5XX         0.00101  -0.00060   0.00712  -0.00083   0.00090
  75        5YY        -0.00134   0.00032  -0.00198   0.00155  -0.00067
  76        5ZZ        -0.00003   0.00192  -0.00171   0.00046  -0.00034
  77        5XY         0.00043   0.00026  -0.00285  -0.00103   0.00201
  78        5XZ         0.00115   0.00077  -0.00021  -0.00135  -0.00251
  79        5YZ        -0.00115   0.00000   0.00151  -0.00238   0.00024
  80 6   O  1S         -0.00021  -0.00019  -0.00405   0.00409  -0.00116
  81        2S          0.00034   0.00111   0.01019  -0.00630   0.00434
  82        2PX        -0.00003  -0.00018  -0.00287   0.00162  -0.00103
  83        2PY         0.00004  -0.00001  -0.00003   0.00099  -0.00055
  84        2PZ        -0.00016  -0.00037  -0.00465   0.00403  -0.00115
  85        3S         -0.00289  -0.00679   0.00203  -0.01848  -0.00543
  86        3PX         0.00142   0.00158   0.00060   0.00076   0.00055
  87        3PY        -0.00035   0.00029  -0.00091  -0.00184   0.00170
  88        3PZ         0.00201   0.00460  -0.00080   0.00374   0.00027
  89        4XX        -0.00021   0.00078   0.00045   0.00099   0.00062
  90        4YY         0.00006   0.00059   0.00036   0.00106   0.00044
  91        4ZZ         0.00033   0.00016   0.00160   0.00014   0.00112
  92        4XY         0.00004   0.00000   0.00008  -0.00011  -0.00003
  93        4XZ        -0.00038   0.00018   0.00052  -0.00048   0.00007
  94        4YZ         0.00027  -0.00007   0.00025   0.00017  -0.00010
  95 7   O  1S          0.00060   0.00017  -0.00618   0.01065   0.00026
  96        2S         -0.00170   0.00005   0.01396  -0.02596  -0.00085
  97        2PX         0.00038   0.00005  -0.00327   0.00453   0.00005
  98        2PY        -0.00094  -0.00015   0.00560  -0.00863  -0.00077
  99        2PZ        -0.00074  -0.00003   0.00458  -0.00739   0.00069
 100        3S          0.01008   0.00031   0.00910  -0.00540   0.00165
 101        3PX        -0.00167  -0.00083   0.00056   0.00078   0.00081
 102        3PY         0.00464   0.00044   0.00053  -0.00168   0.00201
 103        3PZ         0.00327  -0.00050   0.00115  -0.00108  -0.00173
 104        4XX        -0.00061   0.00037   0.00003  -0.00077  -0.00020
 105        4YY        -0.00078   0.00013   0.00075  -0.00174   0.00020
 106        4ZZ        -0.00099  -0.00021   0.00067  -0.00147  -0.00026
 107        4XY         0.00032  -0.00025  -0.00044   0.00064   0.00013
 108        4XZ         0.00034  -0.00016  -0.00042   0.00043  -0.00005
 109        4YZ        -0.00053  -0.00037   0.00082  -0.00164  -0.00003
 110 8   O  1S         -0.00006   0.00013  -0.00331   0.00271   0.00116
 111        2S         -0.00035   0.00050   0.00748  -0.00523  -0.00340
 112        2PX         0.00010  -0.00002  -0.00164   0.00067   0.00040
 113        2PY         0.00009   0.00005  -0.00241   0.00234   0.00073
 114        2PZ         0.00006   0.00012   0.00189  -0.00083  -0.00020
 115        3S          0.00157  -0.00213   0.00345  -0.00841   0.00285
 116        3PX        -0.00052  -0.00024   0.00001  -0.00008   0.00158
 117        3PY        -0.00133  -0.00022  -0.00012   0.00184  -0.00185
 118        3PZ        -0.00035  -0.00089   0.00032  -0.00285  -0.00049
 119        4XX        -0.00031   0.00061   0.00003   0.00033  -0.00046
 120        4YY         0.00052   0.00045   0.00058  -0.00013   0.00006
 121        4ZZ        -0.00064   0.00011   0.00006  -0.00029  -0.00016
 122        4XY        -0.00006   0.00042   0.00017  -0.00027  -0.00019
 123        4XZ         0.00025  -0.00014  -0.00005  -0.00010   0.00003
 124        4YZ         0.00011   0.00034  -0.00036   0.00064   0.00013
 125 9   H  1S          0.00008   0.00019   0.00078  -0.00012  -0.00035
 126        2S          0.00042   0.00086  -0.00074  -0.00222   0.00049
                          16        17        18        19        20
                           O         O         O         O         O
     Eigenvalues --    -1.20349  -1.07431  -1.02031  -0.79372  -0.68093
   1 1   C  1S         -0.00424  -0.00447  -0.00247  -0.13424   0.08233
   2        2S         -0.00184   0.00523   0.00384   0.31075  -0.20397
   3        2PX         0.03365   0.01282   0.00726   0.15525   0.23065
   4        2PY         0.00037   0.00004   0.00257  -0.01523  -0.06230
   5        2PZ         0.00451   0.00234  -0.00294   0.00493  -0.02164
   6        3S          0.04563   0.02135   0.00985   0.23457  -0.11997
   7        3PX         0.02044   0.00921   0.00453   0.08913   0.00818
   8        3PY        -0.00077   0.00320   0.00633  -0.01511  -0.00669
   9        3PZ         0.00161   0.00425  -0.00321  -0.00191  -0.00496
  10        4XX         0.00677   0.00188   0.00061   0.00656   0.01246
  11        4YY        -0.00154  -0.00167  -0.00008  -0.01117  -0.00054
  12        4ZZ        -0.00317  -0.00052  -0.00107  -0.01207   0.00259
  13        4XY        -0.00196   0.00037   0.00142  -0.00315   0.00222
  14        4XZ        -0.00045   0.00087  -0.00111   0.00011   0.00144
  15        4YZ         0.00096  -0.00063  -0.00056   0.00054  -0.00337
  16 2   F  1S          0.02012  -0.00068   0.00367   0.04788  -0.03758
  17        2S         -0.04621   0.00366  -0.01073  -0.10505   0.08166
  18        2PX         0.00068   0.00043   0.00220   0.07335   0.00230
  19        2PY         0.00002   0.00052   0.00077  -0.00572  -0.01442
  20        2PZ        -0.00660   0.00009   0.00029   0.09262  -0.19420
  21        3S         -0.04423  -0.00284  -0.00556  -0.14839   0.12051
  22        3PX         0.00002  -0.00227   0.00326   0.03875   0.00572
  23        3PY        -0.00055   0.00106   0.00032  -0.00194  -0.00918
  24        3PZ        -0.00558   0.00005  -0.00029   0.05456  -0.11890
  25        4XX        -0.00058   0.00059  -0.00064   0.00313   0.00380
  26        4YY        -0.00154   0.00088  -0.00165  -0.00220   0.00181
  27        4ZZ        -0.00294   0.00128  -0.00161   0.00804  -0.01554
  28        4XY        -0.00031   0.00048   0.00036  -0.00040  -0.00048
  29        4XZ        -0.00055  -0.00007   0.00024   0.00691  -0.00103
  30        4YZ        -0.00002  -0.00003  -0.00014  -0.00025  -0.00111
  31 3   F  1S          0.00321   0.00602   0.00255   0.05120  -0.05315
  32        2S         -0.00500  -0.01628  -0.00713  -0.11404   0.11090
  33        2PX         0.00302   0.00296   0.00204   0.08364  -0.01146
  34        2PY         0.00145  -0.00015   0.00052  -0.10340   0.25999
  35        2PZ         0.00125   0.00038  -0.00126  -0.05403   0.15088
  36        3S         -0.01476  -0.01188  -0.00530  -0.15552   0.18670
  37        3PX        -0.00057   0.00397   0.00252   0.04325   0.00081
  38        3PY         0.00319   0.00071   0.00082  -0.06083   0.15135
  39        3PZ         0.00175   0.00124  -0.00056  -0.03228   0.08854
  40        4XX         0.00122  -0.00054  -0.00020   0.00201   0.00269
  41        4YY         0.00015  -0.00200  -0.00092   0.00593  -0.01558
  42        4ZZ         0.00033  -0.00200  -0.00109  -0.00046  -0.00493
  43        4XY         0.00004  -0.00047   0.00010  -0.00682   0.00103
  44        4XZ         0.00006   0.00008  -0.00060  -0.00354   0.00067
  45        4YZ        -0.00019  -0.00006   0.00001   0.00554  -0.01091
  46 4   F  1S          0.01743   0.00238  -0.00190   0.04638  -0.03890
  47        2S         -0.03842  -0.00471   0.00520  -0.10243   0.08370
  48        2PX        -0.00001   0.00128  -0.00047   0.08241  -0.03115
  49        2PY        -0.00475   0.00000  -0.00032   0.06779  -0.17446
  50        2PZ         0.00304   0.00058  -0.00000  -0.03879   0.08100
  51        3S         -0.04177  -0.00758   0.00432  -0.14172   0.12635
  52        3PX        -0.00194  -0.00034  -0.00165   0.04468  -0.01473
  53        3PY        -0.00465  -0.00003   0.00052   0.04167  -0.10767
  54        3PZ         0.00196   0.00116  -0.00060  -0.02265   0.05006
  55        4XX        -0.00019   0.00033   0.00019   0.00447   0.00213
  56        4YY        -0.00143   0.00002   0.00066   0.00397  -0.01193
  57        4ZZ        -0.00084   0.00018   0.00070  -0.00071  -0.00187
  58        4XY        -0.00086   0.00020  -0.00004   0.00640  -0.00424
  59        4XZ         0.00022   0.00049  -0.00008  -0.00357   0.00164
  60        4YZ         0.00052  -0.00011   0.00000  -0.00402   0.00757
  61 5   S  1S          0.05232   0.01144  -0.00102   0.02827   0.03045
  62        2S         -0.23415  -0.05092   0.00578  -0.12256  -0.13520
  63        2PX        -0.03305  -0.01110   0.00610   0.11548   0.04878
  64        2PY         0.04461  -0.07755  -0.06067  -0.03098  -0.03264
  65        2PZ         0.02817  -0.11697   0.06032   0.00429   0.01117
  66        3S          0.48633   0.10704  -0.01060   0.29896   0.32698
  67        3PX         0.06205   0.02210  -0.01468  -0.28943  -0.12337
  68        3PY        -0.08899   0.17353   0.13547   0.07865   0.08285
  69        3PZ        -0.06031   0.25974  -0.13558  -0.00993  -0.02769
  70        4S         -0.05332  -0.02136  -0.01390   0.01796   0.14505
  71        4PX        -0.00192  -0.00219   0.00074   0.01358  -0.04755
  72        4PY        -0.00211  -0.02480  -0.02006   0.00080   0.02236
  73        4PZ         0.00798  -0.02520   0.01064   0.00677  -0.00074
  74        5XX        -0.03695   0.00277   0.00351   0.04570   0.00193
  75        5YY        -0.00265  -0.03306   0.03470  -0.01730  -0.00818
  76        5ZZ         0.00723   0.03129  -0.02876  -0.03050  -0.01434
  77        5XY        -0.01368   0.02342   0.01545  -0.00487   0.00572
  78        5XZ        -0.00589   0.04323  -0.02165  -0.00091  -0.00047
  79        5YZ         0.03921  -0.03874  -0.03345  -0.01480  -0.01370
  80 6   O  1S         -0.07265  -0.15511   0.08758   0.05103   0.04772
  81        2S          0.15446   0.34086  -0.19853  -0.11607  -0.10346
  82        2PX        -0.02726  -0.05047   0.02763  -0.03409  -0.04073
  83        2PY        -0.00721  -0.00027   0.01601   0.00528   0.00641
  84        2PZ        -0.07243  -0.11367   0.05336   0.00095  -0.04299
  85        3S          0.15143   0.31994  -0.17503  -0.13553  -0.16307
  86        3PX        -0.01365  -0.01678   0.00927  -0.01790  -0.01207
  87        3PY        -0.00013   0.00485   0.00748   0.00030  -0.00055
  88        3PZ        -0.03335  -0.03501   0.01439  -0.00100  -0.01403
  89        4XX        -0.00224  -0.00292   0.00007   0.00352   0.00399
  90        4YY        -0.00479  -0.00674   0.00208   0.00051   0.00159
  91        4ZZ         0.01159   0.00890  -0.00512   0.00029   0.00515
  92        4XY         0.00124   0.00028  -0.00092  -0.00032  -0.00038
  93        4XZ         0.00749   0.00890  -0.00410   0.00332   0.00328
  94        4YZ         0.00183  -0.00026  -0.00190  -0.00051  -0.00042
  95 7   O  1S         -0.14531   0.12053   0.02383   0.04950   0.05180
  96        2S          0.31819  -0.27019  -0.05426  -0.11659  -0.11721
  97        2PX        -0.04355   0.03522   0.00648  -0.04429  -0.04538
  98        2PY         0.11120  -0.06957   0.00024   0.00531   0.05214
  99        2PZ         0.09774  -0.05603  -0.02409  -0.00567   0.02032
 100        3S          0.25449  -0.21554  -0.04632  -0.11640  -0.16646
 101        3PX        -0.01240   0.00777   0.00256  -0.02339  -0.01646
 102        3PY         0.02847  -0.00529   0.00376   0.00787   0.02014
 103        3PZ         0.02290  -0.00348  -0.00871   0.00280   0.00866
 104        4XX        -0.00349   0.00097   0.00041   0.00225   0.00235
 105        4YY         0.00841  -0.00273   0.00165   0.00035   0.00431
 106        4ZZ         0.00553   0.00099  -0.00267  -0.00145   0.00088
 107        4XY        -0.00672   0.00464  -0.00037  -0.00450  -0.00401
 108        4XZ        -0.00635   0.00303   0.00109  -0.00339  -0.00255
 109        4YZ         0.01519  -0.00457  -0.00166   0.00020   0.00296
 110 8   O  1S         -0.04748  -0.05601  -0.19675   0.03853   0.03404
 111        2S          0.09598   0.12134   0.43343  -0.08866  -0.07236
 112        2PX        -0.00643  -0.00174  -0.00303  -0.04865  -0.06613
 113        2PY        -0.03235  -0.01349  -0.04110  -0.03707  -0.09296
 114        2PZ         0.02304   0.03349   0.06919  -0.00215   0.00934
 115        3S          0.11974   0.13375   0.47058  -0.10265  -0.12226
 116        3PX        -0.00668  -0.00369  -0.00088  -0.02746  -0.03278
 117        3PY        -0.02335  -0.01295  -0.02354  -0.01840  -0.04248
 118        3PZ         0.01816   0.02156   0.05057  -0.00538  -0.00234
 119        4XX        -0.00360  -0.00204  -0.00537   0.00117   0.00218
 120        4YY         0.00332   0.00229   0.00496   0.00061   0.00463
 121        4ZZ        -0.00050   0.00097   0.00130  -0.00143   0.00069
 122        4XY         0.00496   0.00375   0.01171   0.00023   0.00012
 123        4XZ        -0.00084   0.00103   0.00419  -0.00446  -0.00539
 124        4YZ        -0.00491  -0.00182  -0.00204  -0.00332  -0.00651
 125 9   H  1S          0.01154   0.02242   0.06922  -0.03297  -0.04789
 126        2S          0.00417   0.01121   0.00794  -0.01459  -0.02790
                          21        22        23        24        25
                           O         O         O         O         O
     Eigenvalues --    -0.61534  -0.60653  -0.59390  -0.55106  -0.51192
   1 1   C  1S          0.01634   0.00016   0.00959  -0.00810  -0.00730
   2        2S         -0.03619   0.00049  -0.02207   0.02155   0.02016
   3        2PX        -0.00904  -0.07751  -0.19397   0.03457   0.01442
   4        2PY         0.31313   0.06905  -0.13762  -0.05243  -0.02110
   5        2PZ         0.12602  -0.31265   0.10397   0.03683  -0.01668
   6        3S         -0.04605   0.00031  -0.01661   0.00420   0.01714
   7        3PX        -0.00652  -0.02111  -0.06604   0.01761   0.02889
   8        3PY         0.08684   0.03049  -0.04623  -0.01562  -0.01150
   9        3PZ         0.02699  -0.10317   0.03490   0.01857  -0.00140
  10        4XX        -0.00279   0.00023   0.00676  -0.00296  -0.00384
  11        4YY         0.00867  -0.00717  -0.00088  -0.00136   0.00192
  12        4ZZ        -0.00454   0.00798  -0.00192   0.00158   0.00037
  13        4XY        -0.01139  -0.00212   0.00789   0.01058   0.01246
  14        4XZ        -0.00527   0.01173  -0.00743  -0.00738   0.01130
  15        4YZ         0.01280  -0.00277  -0.00504   0.00017   0.00058
  16 2   F  1S         -0.02326   0.05150  -0.00865  -0.00415   0.00183
  17        2S          0.04317  -0.09157   0.01690  -0.00193  -0.00062
  18        2PX        -0.07318   0.13137  -0.14014   0.04785  -0.01412
  19        2PY         0.14289   0.03754  -0.06900  -0.05409  -0.05680
  20        2PZ        -0.13615   0.33378  -0.01455  -0.06673   0.06223
  21        3S          0.09734  -0.22888   0.03629   0.03827  -0.00768
  22        3PX        -0.04266   0.07167  -0.08759   0.03920  -0.01577
  23        3PY         0.08746   0.02346  -0.04128  -0.03769  -0.04026
  24        3PZ        -0.07759   0.18966  -0.00688  -0.03754   0.04245
  25        4XX        -0.00383   0.00891  -0.00503  -0.00148  -0.00152
  26        4YY        -0.00261   0.00697  -0.00088  -0.00534   0.00195
  27        4ZZ        -0.00802   0.02093   0.00161  -0.00786   0.00483
  28        4XY         0.00428   0.00115  -0.00152  -0.00088  -0.00001
  29        4XZ        -0.00427   0.00660  -0.00745   0.00218  -0.00005
  30        4YZ         0.00810   0.00208  -0.00365  -0.00301  -0.00282
  31 3   F  1S          0.04631  -0.01063  -0.00453  -0.00263  -0.00212
  32        2S         -0.07986   0.01859   0.00992   0.00072  -0.00502
  33        2PX         0.16341  -0.09663  -0.17917   0.05467   0.16676
  34        2PY        -0.27398   0.15816  -0.07829   0.00528   0.09870
  35        2PZ        -0.18868  -0.16068   0.09954   0.10917   0.03285
  36        3S         -0.21247   0.04907   0.01775   0.02039   0.02872
  37        3PX         0.09166  -0.05959  -0.11466   0.03895   0.11671
  38        3PY        -0.15179   0.09266  -0.05059  -0.00151   0.06019
  39        3PZ        -0.10587  -0.10111   0.06109   0.07039   0.01676
  40        4XX         0.00957  -0.00400  -0.00545   0.00029   0.00172
  41        4YY         0.01457  -0.01058   0.00859  -0.00047  -0.00838
  42        4ZZ         0.01068   0.00723  -0.00355  -0.00603  -0.00489
  43        4XY        -0.00681   0.00703   0.00671  -0.00289  -0.00526
  44        4XZ        -0.00483  -0.00199   0.00682  -0.00015  -0.00280
  45        4YZ         0.00664   0.00615  -0.00141  -0.00357  -0.00104
  46 4   F  1S         -0.03556  -0.02498   0.03429   0.00707   0.00134
  47        2S          0.06621   0.04506  -0.05676  -0.00979  -0.00186
  48        2PX        -0.15381  -0.15318   0.05446   0.05286   0.03260
  49        2PY        -0.10170  -0.14283   0.24501   0.06699  -0.01596
  50        2PZ         0.17930  -0.04970  -0.10879  -0.02124  -0.07989
  51        3S          0.15089   0.11237  -0.15997  -0.03383  -0.00358
  52        3PX        -0.09020  -0.09098   0.02155   0.02972   0.01965
  53        3PY        -0.05455  -0.08076   0.14414   0.04201  -0.01159
  54        3PZ         0.10633  -0.03354  -0.06144  -0.01285  -0.05794
  55        4XX        -0.00903  -0.00918   0.00452   0.00201   0.00032
  56        4YY        -0.00390  -0.00814   0.01687   0.00438  -0.00163
  57        4ZZ        -0.00895   0.00041   0.00849   0.00277   0.00353
  58        4XY        -0.00454  -0.00771   0.00296   0.00295   0.00105
  59        4XZ         0.00724  -0.00027  -0.00080  -0.00115  -0.00157
  60        4YZ         0.00590  -0.00271  -0.00506  -0.00047  -0.00275
  61 5   S  1S          0.00974   0.00682   0.02285  -0.02078  -0.00045
  62        2S         -0.04180  -0.02764  -0.09509   0.08568  -0.00025
  63        2PX        -0.04525  -0.04783  -0.09308   0.01895  -0.04912
  64        2PY        -0.04764  -0.03937  -0.03314  -0.12108  -0.09531
  65        2PZ         0.01474   0.04332   0.02425   0.08494  -0.11294
  66        3S          0.11160   0.08343   0.27373  -0.25862  -0.01464
  67        3PX         0.11772   0.12301   0.24014  -0.04888   0.13282
  68        3PY         0.12439   0.10289   0.08721   0.31827   0.25656
  69        3PZ        -0.03761  -0.11416  -0.06246  -0.22729   0.30892
  70        4S          0.02338  -0.01272   0.00403  -0.00758   0.01537
  71        4PX         0.01390   0.02496   0.04445  -0.00149   0.04691
  72        4PY         0.02828   0.00893   0.01318   0.06121   0.05213
  73        4PZ         0.00502  -0.01704  -0.00374  -0.05050   0.04790
  74        5XX        -0.01304  -0.00906  -0.01560   0.00611   0.02115
  75        5YY         0.00458  -0.00174  -0.00196  -0.00687  -0.00096
  76        5ZZ         0.00130   0.00685  -0.00151   0.02941  -0.01287
  77        5XY        -0.01353   0.00163   0.01335   0.01269   0.00024
  78        5XZ        -0.01302   0.01383  -0.01417  -0.00947   0.00367
  79        5YZ        -0.00558  -0.01161  -0.01677  -0.01157  -0.00528
  80 6   O  1S          0.02047  -0.00183   0.04368  -0.07099   0.06589
  81        2S         -0.04370   0.00514  -0.09844   0.15334  -0.13557
  82        2PX         0.00360   0.04247   0.01586   0.07559  -0.07446
  83        2PY         0.02214   0.01772   0.00392   0.11606   0.07575
  84        2PZ        -0.04695  -0.02448  -0.12010   0.18861  -0.24732
  85        3S         -0.07850   0.01185  -0.14859   0.27846  -0.29843
  86        3PX         0.00314   0.02379   0.00902   0.02969  -0.02866
  87        3PY         0.00855   0.00835   0.00086   0.06149   0.04917
  88        3PZ        -0.01959  -0.01578  -0.05859   0.08599  -0.10920
  89        4XX         0.00007  -0.00276  -0.00233  -0.00432   0.00489
  90        4YY         0.00037   0.00015  -0.00085  -0.00365   0.00320
  91        4ZZ         0.00616   0.00378   0.01243  -0.01554   0.02013
  92        4XY        -0.00148  -0.00096  -0.00053  -0.00424  -0.00382
  93        4XZ         0.00003  -0.00260   0.00003  -0.00679   0.00598
  94        4YZ        -0.00167  -0.00178  -0.00072  -0.00874  -0.00682
  95 7   O  1S          0.00999   0.02030   0.05149  -0.05514  -0.06747
  96        2S         -0.02113  -0.04558  -0.11722   0.12093   0.14006
  97        2PX         0.05051   0.02340   0.05479   0.04356   0.22306
  98        2PY         0.05844   0.07986   0.14589  -0.01150  -0.22483
  99        2PZ         0.00052  -0.00799   0.06998  -0.28185  -0.13278
 100        3S         -0.03015  -0.07207  -0.17727   0.21614   0.31666
 101        3PX         0.03038   0.01169   0.03054   0.01524   0.11243
 102        3PY         0.02750   0.03828   0.07009   0.00826  -0.10067
 103        3PZ        -0.00104  -0.00621   0.02982  -0.14417  -0.04371
 104        4XX        -0.00261  -0.00160  -0.00487  -0.00039  -0.00916
 105        4YY         0.00641   0.00829   0.01198   0.00620  -0.01353
 106        4ZZ        -0.00035  -0.00177   0.00278  -0.02182  -0.00456
 107        4XY         0.00200  -0.00002   0.00197  -0.00071   0.01521
 108        4XZ         0.00339   0.00294   0.00309   0.00796   0.01098
 109        4YZ         0.00174   0.00305   0.00896  -0.01194  -0.00750
 110 8   O  1S          0.02443   0.02135   0.02923   0.01241   0.02859
 111        2S         -0.05453  -0.04920  -0.06332  -0.01690  -0.06444
 112        2PX        -0.05320  -0.05519  -0.04017  -0.13101   0.02962
 113        2PY        -0.11434  -0.12702  -0.19785  -0.19910  -0.01615
 114        2PZ         0.01430  -0.00089   0.02022  -0.04217   0.15807
 115        3S         -0.08446  -0.06837  -0.09683  -0.07908  -0.11022
 116        3PX        -0.03247  -0.03610  -0.01920  -0.07663   0.02173
 117        3PY        -0.06147  -0.07091  -0.11427  -0.10720  -0.00157
 118        3PZ         0.00023  -0.00457   0.00598  -0.04174   0.09996
 119        4XX         0.00013  -0.00037  -0.00141   0.00369  -0.00122
 120        4YY         0.00366   0.00378   0.00959   0.00932  -0.00256
 121        4ZZ        -0.00055  -0.00213   0.00057  -0.00119   0.01195
 122        4XY        -0.00095  -0.00058  -0.00224  -0.00016  -0.00271
 123        4XZ        -0.00470  -0.00416  -0.00397  -0.00839   0.00077
 124        4YZ        -0.00694  -0.00733  -0.01242  -0.00811  -0.00406
 125 9   H  1S         -0.04747  -0.05453  -0.06879  -0.10027   0.04060
 126        2S         -0.03161  -0.03019  -0.04693  -0.06187   0.02125
                          26        27        28        29        30
                           O         O         O         O         O
     Eigenvalues --    -0.49731  -0.48739  -0.48101  -0.46184  -0.45534
   1 1   C  1S         -0.01470   0.00004  -0.01338  -0.00280   0.00076
   2        2S          0.04398   0.00094   0.03461   0.00597  -0.00358
   3        2PX         0.02145   0.01122   0.02586   0.02471  -0.01220
   4        2PY         0.00051   0.04431  -0.04486  -0.00656  -0.02576
   5        2PZ        -0.00007  -0.08012  -0.01236   0.01278  -0.01907
   6        3S          0.01345  -0.00278   0.04392   0.01781   0.01118
   7        3PX         0.09487  -0.00432   0.07991  -0.00725  -0.03219
   8        3PY        -0.03553  -0.02279   0.05331  -0.05390   0.08262
   9        3PZ        -0.01179   0.05317   0.03773  -0.02823   0.04853
  10        4XX        -0.02273   0.00126  -0.01546   0.00547   0.00836
  11        4YY         0.00926  -0.03039  -0.00310   0.00080  -0.01232
  12        4ZZ         0.00527   0.02952   0.01324  -0.00482   0.00769
  13        4XY         0.01433  -0.00166  -0.00803  -0.00229   0.01427
  14        4XZ         0.00417  -0.00789  -0.00927  -0.00466   0.01120
  15        4YZ         0.01226   0.01659  -0.02652  -0.00401  -0.01638
  16 2   F  1S         -0.00018   0.00597  -0.00054  -0.00022   0.00033
  17        2S         -0.00383  -0.01155  -0.00565   0.00596   0.00259
  18        2PX         0.12838   0.26077   0.29584   0.00327  -0.22634
  19        2PY        -0.15176  -0.11185   0.30026   0.01940   0.31020
  20        2PZ         0.00460   0.11653  -0.03695  -0.06522   0.21033
  21        3S          0.01938  -0.00628   0.03124  -0.01948   0.00298
  22        3PX         0.08252   0.18511   0.20375   0.00053  -0.14885
  23        3PY        -0.10435  -0.07859   0.20761   0.02027   0.20203
  24        3PZ         0.01271   0.07927  -0.01558  -0.04888   0.14096
  25        4XX        -0.00108   0.00732   0.00311   0.00369  -0.00420
  26        4YY        -0.00187  -0.00455  -0.00470   0.00302  -0.00138
  27        4ZZ        -0.00035   0.00304  -0.00476  -0.00062   0.01043
  28        4XY        -0.00097  -0.00143   0.00314  -0.00091   0.00514
  29        4XZ         0.00519   0.01096   0.01085  -0.00041  -0.00437
  30        4YZ        -0.00644  -0.00406   0.01101   0.00284   0.00762
  31 3   F  1S         -0.00151   0.00012  -0.00096  -0.00136   0.00542
  32        2S         -0.00708   0.00018   0.00396  -0.01033  -0.00981
  33        2PX         0.42772  -0.07776  -0.12393  -0.08851   0.24057
  34        2PY         0.02949  -0.24841   0.07409   0.01762   0.21778
  35        2PZ         0.10017   0.40905  -0.00870  -0.08696   0.19983
  36        3S          0.04754  -0.00319  -0.01258   0.04160  -0.05982
  37        3PX         0.28742  -0.05407  -0.09812  -0.05579   0.15552
  38        3PY         0.00780  -0.16863   0.04861   0.00492   0.15495
  39        3PZ         0.06147   0.27801  -0.00917  -0.06288   0.13811
  40        4XX         0.00362  -0.00147  -0.00436  -0.00693   0.00900
  41        4YY        -0.00569   0.01346   0.00090  -0.00619  -0.00627
  42        4ZZ        -0.00868  -0.01151   0.00543  -0.00313  -0.00019
  43        4XY        -0.01359  -0.00017   0.00504   0.00211  -0.00353
  44        4XZ        -0.00662   0.00571   0.00160  -0.00010  -0.00066
  45        4YZ        -0.00262  -0.00833  -0.00124   0.00236  -0.00932
  46 4   F  1S         -0.00067  -0.00659   0.00132   0.00139   0.00050
  47        2S         -0.00466   0.01310  -0.00894   0.01027   0.00204
  48        2PX         0.10322  -0.25441   0.31450   0.00610  -0.14400
  49        2PY        -0.06747   0.00419   0.09462   0.02999   0.27324
  50        2PZ        -0.09465   0.19131   0.26981   0.01173   0.13078
  51        3S          0.02435   0.01037   0.02445  -0.03749   0.00007
  52        3PX         0.06701  -0.18079   0.21987  -0.00046  -0.09378
  53        3PY        -0.03695   0.00556   0.07223   0.01655   0.18019
  54        3PZ        -0.07056   0.13217   0.18228   0.01853   0.08277
  55        4XX        -0.00189  -0.00905   0.00717   0.00573  -0.00316
  56        4YY        -0.00541   0.00473   0.00104   0.00749   0.00987
  57        4ZZ         0.00139  -0.00141  -0.01271   0.00343  -0.00186
  58        4XY         0.00314  -0.00707   0.01093   0.00035   0.00163
  59        4XZ        -0.00352   0.00636  -0.00084   0.00040   0.00516
  60        4YZ        -0.00238   0.00599   0.00561   0.00107  -0.00177
  61 5   S  1S         -0.00469   0.00164  -0.00447   0.00456   0.00147
  62        2S          0.01831  -0.00782   0.01912  -0.01949  -0.00539
  63        2PX        -0.09484  -0.00185  -0.05625   0.00748   0.01923
  64        2PY         0.04703  -0.00318  -0.00008  -0.03682   0.00692
  65        2PZ         0.05499  -0.01188  -0.00767   0.06362   0.01577
  66        3S         -0.05632   0.01687  -0.05177   0.05375   0.02047
  67        3PX         0.26075   0.00420   0.15554  -0.02340  -0.05638
  68        3PY        -0.12929   0.00937  -0.00252   0.09840  -0.02076
  69        3PZ        -0.14941   0.03018   0.01877  -0.17287  -0.04445
  70        4S         -0.03918   0.00767  -0.02757  -0.00249  -0.00065
  71        4PX         0.08639   0.00491   0.05307   0.01520  -0.01629
  72        4PY         0.02331   0.02969  -0.07040   0.10400   0.05434
  73        4PZ         0.01470  -0.05188  -0.03664   0.01971   0.05271
  74        5XX         0.01732   0.00092   0.02440   0.01341  -0.00977
  75        5YY        -0.00941  -0.00466  -0.01395   0.00005   0.00985
  76        5ZZ        -0.01944   0.00186  -0.01035  -0.01582  -0.00083
  77        5XY        -0.02196  -0.00274  -0.00680   0.02684  -0.01023
  78        5XZ        -0.01449   0.01320  -0.00341   0.00158  -0.01313
  79        5YZ         0.00675   0.00801  -0.01655   0.07609   0.01459
  80 6   O  1S         -0.01508   0.00860   0.00549  -0.01239  -0.00608
  81        2S          0.03817  -0.02908  -0.01666   0.02352   0.01820
  82        2PX         0.15136  -0.01339   0.06028   0.09835  -0.02512
  83        2PY        -0.03521   0.01423  -0.03209   0.22660   0.02678
  84        2PZ         0.02779  -0.04525  -0.05370   0.05987   0.06865
  85        3S          0.03592  -0.00009  -0.00661   0.05242   0.00207
  86        3PX         0.08728  -0.01253   0.03483   0.06377  -0.01699
  87        3PY        -0.02541   0.00458  -0.01192   0.14917   0.01082
  88        3PZ         0.01466  -0.02767  -0.03036   0.02031   0.04136
  89        4XX        -0.00524  -0.00348  -0.00474  -0.00564   0.00414
  90        4YY         0.00208  -0.00403  -0.00198  -0.00083   0.00233
  91        4ZZ         0.00484  -0.00206   0.00421  -0.00312  -0.00293
  92        4XY         0.00064  -0.00039   0.00034  -0.00555  -0.00084
  93        4XZ        -0.01031   0.00144  -0.00362  -0.00731   0.00125
  94        4YZ         0.00384  -0.00069   0.00097  -0.01600  -0.00082
  95 7   O  1S          0.04017  -0.00154   0.00014   0.01013   0.00257
  96        2S         -0.08896   0.00390   0.01521  -0.02914  -0.01306
  97        2PX         0.09359  -0.00168   0.14271  -0.10790  -0.03213
  98        2PY         0.19886  -0.01068   0.00919   0.16392   0.04394
  99        2PZ         0.15647  -0.00462   0.01944  -0.04862   0.03760
 100        3S         -0.16974   0.00112  -0.05880  -0.00515   0.02651
 101        3PX         0.05936  -0.00591   0.09258  -0.07741  -0.01631
 102        3PY         0.09327  -0.01233   0.00451   0.08672   0.02542
 103        3PZ         0.07040   0.00621   0.00294  -0.03462   0.02368
 104        4XX        -0.00702   0.00067  -0.00027   0.00125  -0.00344
 105        4YY         0.01102  -0.00205   0.00879   0.00697  -0.00178
 106        4ZZ         0.00544   0.00104   0.00856  -0.01463  -0.00258
 107        4XY         0.00396  -0.00023   0.00840  -0.00811  -0.00206
 108        4XZ         0.00469   0.00024   0.00757  -0.00141  -0.00223
 109        4YZ         0.01188   0.00024   0.00290   0.00204   0.00159
 110 8   O  1S          0.00357   0.00764   0.00039   0.06210   0.00233
 111        2S         -0.00523  -0.00804  -0.00672  -0.13471  -0.00476
 112        2PX         0.09080   0.03842   0.03928   0.18831  -0.02539
 113        2PY        -0.01026   0.03772  -0.03102   0.09593   0.03625
 114        2PZ        -0.01425   0.03857  -0.01345   0.33910   0.01862
 115        3S         -0.02938  -0.06116   0.01676  -0.27430  -0.01456
 116        3PX         0.05741   0.02962   0.01999   0.13356  -0.01840
 117        3PY        -0.00064   0.03307  -0.02380   0.06930   0.02341
 118        3PZ        -0.01519   0.02496  -0.00690   0.22138   0.00578
 119        4XX         0.00084   0.00364  -0.00221   0.00118   0.00079
 120        4YY         0.00276   0.00152  -0.00130  -0.00271  -0.00075
 121        4ZZ        -0.00091   0.00749  -0.00322   0.02863   0.00099
 122        4XY        -0.00382  -0.00018  -0.00229  -0.00221   0.00114
 123        4XZ         0.00527   0.00293   0.00238   0.01264  -0.00155
 124        4YZ         0.00132   0.00129  -0.00175   0.00243   0.00215
 125 9   H  1S          0.01862   0.03410  -0.00479   0.19049   0.01108
 126        2S          0.01148   0.02256   0.00525   0.16320   0.00598
                          31        32        33        34        35
                           O         O         O         O         O
     Eigenvalues --    -0.44513  -0.42921  -0.40486  -0.38972  -0.36978
   1 1   C  1S          0.00074   0.00003  -0.00214  -0.03997  -0.02307
   2        2S         -0.00073  -0.00067   0.00130   0.07462   0.03827
   3        2PX        -0.00899   0.00018   0.01289   0.21590   0.11129
   4        2PY        -0.01995   0.00692  -0.00093  -0.02050  -0.01272
   5        2PZ         0.02483  -0.01412  -0.00049   0.00729   0.00224
   6        3S         -0.00425   0.00170   0.02990   0.28830   0.19769
   7        3PX         0.00016  -0.00218   0.01150   0.07318   0.05638
   8        3PY         0.04893  -0.01894   0.02404   0.02108  -0.04214
   9        3PZ        -0.04079   0.04580  -0.07366   0.03133  -0.01716
  10        4XX         0.00352  -0.00095   0.00187   0.02515   0.01025
  11        4YY         0.00363  -0.00509  -0.00180  -0.01214  -0.00486
  12        4ZZ        -0.00631   0.00580  -0.00003  -0.01281  -0.00729
  13        4XY         0.01395  -0.00301   0.00192  -0.00353  -0.00658
  14        4XZ        -0.01845   0.00452  -0.00244   0.00307  -0.00236
  15        4YZ        -0.00332   0.00261   0.00019   0.00013   0.00046
  16 2   F  1S          0.00105  -0.00213   0.00190   0.00170   0.00292
  17        2S         -0.00480   0.00387   0.01437  -0.00048   0.00065
  18        2PX         0.29746  -0.11346  -0.00386  -0.12113  -0.10663
  19        2PY        -0.05831  -0.42315  -0.03145  -0.01639   0.04808
  20        2PZ        -0.25662   0.11857  -0.01171  -0.04252  -0.01232
  21        3S         -0.01341   0.02227  -0.05828  -0.02379  -0.04059
  22        3PX         0.19981  -0.07126  -0.00918  -0.09330  -0.08057
  23        3PY        -0.04728  -0.28368  -0.02458  -0.01416   0.03811
  24        3PZ        -0.17692   0.08458  -0.02169  -0.03718  -0.01934
  25        4XX         0.00790  -0.00339   0.00803   0.00192   0.00300
  26        4YY         0.00068  -0.00187   0.00793   0.00181   0.00265
  27        4ZZ        -0.01262   0.00506   0.00663  -0.00101   0.00188
  28        4XY        -0.00023  -0.00733  -0.00003   0.00016  -0.00034
  29        4XZ         0.00502  -0.00073  -0.00090  -0.00249  -0.00246
  30        4YZ        -0.00360  -0.01019  -0.00165  -0.00161   0.00236
  31 3   F  1S          0.00109   0.00045  -0.00032   0.00606  -0.00085
  32        2S         -0.00074  -0.00023  -0.00629   0.00658   0.00298
  33        2PX         0.06370   0.02423  -0.03419  -0.18324   0.00903
  34        2PY         0.16669   0.12270  -0.01367   0.02881   0.02134
  35        2PZ        -0.20300  -0.19108   0.01290  -0.01073   0.00822
  36        3S         -0.01317  -0.00505   0.01534  -0.09126   0.00356
  37        3PX         0.04056   0.01534  -0.02076  -0.13973   0.00013
  38        3PY         0.10783   0.08488  -0.01667   0.03822   0.01562
  39        3PZ        -0.12433  -0.13090   0.01765   0.00073   0.00642
  40        4XX         0.00273   0.00095  -0.00300   0.00890   0.00117
  41        4YY        -0.00419  -0.00512  -0.00069   0.00645  -0.00040
  42        4ZZ         0.00333   0.00510  -0.00566   0.00857   0.00050
  43        4XY         0.00243   0.00180   0.00099   0.00352  -0.00122
  44        4XZ        -0.00570  -0.00392  -0.00017   0.00205  -0.00035
  45        4YZ         0.00121   0.00309  -0.00130  -0.00042  -0.00075
  46 4   F  1S         -0.00119   0.00161  -0.00124   0.00258   0.00273
  47        2S          0.00433  -0.00386  -0.01059  -0.00163   0.00152
  48        2PX        -0.30290   0.06105  -0.00099  -0.17868  -0.10859
  49        2PY         0.36421   0.12274   0.01046  -0.01786   0.02069
  50        2PZ        -0.08892   0.46173   0.01994  -0.02811   0.02532
  51        3S          0.02074  -0.01637   0.03950  -0.03382  -0.04070
  52        3PX        -0.20208   0.03674   0.00405  -0.13385  -0.08373
  53        3PY         0.25370   0.07878   0.01678  -0.02341   0.00776
  54        3PZ        -0.06028   0.31161   0.01577  -0.01935   0.02715
  55        4XX        -0.01054   0.00167  -0.00554   0.00059   0.00249
  56        4YY         0.01458   0.00370  -0.00417  -0.00065   0.00395
  57        4ZZ        -0.00006  -0.00676  -0.00710   0.00312   0.00144
  58        4XY        -0.00042   0.00356   0.00051  -0.00396  -0.00213
  59        4XZ         0.00183   0.00865   0.00013   0.00153   0.00162
  60        4YZ        -0.00665   0.00829   0.00145  -0.00047   0.00111
  61 5   S  1S          0.00049  -0.00015  -0.00219   0.00219   0.00154
  62        2S         -0.00262   0.00079   0.00892  -0.00502  -0.00272
  63        2PX        -0.00201   0.00025   0.00074   0.03570   0.01928
  64        2PY         0.00905  -0.00001  -0.00608  -0.00896   0.00322
  65        2PZ        -0.01426   0.00091   0.02159   0.01012   0.00300
  66        3S          0.00502  -0.00150  -0.03055   0.03457   0.02477
  67        3PX         0.00431  -0.00053  -0.00402  -0.11586  -0.06157
  68        3PY        -0.02660   0.00092   0.02032   0.02580  -0.00756
  69        3PZ         0.04132  -0.00328  -0.06302  -0.03025  -0.00856
  70        4S          0.00206  -0.00446   0.01765   0.00499  -0.00686
  71        4PX         0.00024   0.00081   0.02891   0.11979   0.13126
  72        4PY         0.02584  -0.00442  -0.03865  -0.00970  -0.12455
  73        4PZ        -0.06206   0.00900   0.12090   0.02938  -0.06973
  74        5XX        -0.00454  -0.00038   0.01057   0.10150   0.07402
  75        5YY        -0.00171  -0.00368   0.12121  -0.03876  -0.02698
  76        5ZZ         0.00359   0.00456  -0.12562  -0.04717  -0.03028
  77        5XY        -0.00950   0.00065  -0.01076  -0.07459   0.05305
  78        5XZ         0.01640  -0.00591   0.01811  -0.07175   0.05572
  79        5YZ        -0.00219  -0.00252  -0.03682  -0.03908  -0.06225
  80 6   O  1S          0.00400  -0.00001  -0.01466  -0.00975  -0.00172
  81        2S         -0.01614   0.00108   0.04016   0.02215   0.00100
  82        2PX        -0.00550  -0.01461   0.23290   0.02267   0.30834
  83        2PY        -0.02846  -0.00887   0.00607  -0.09864  -0.20176
  84        2PZ        -0.05085   0.01107   0.14405   0.19973  -0.10174
  85        3S          0.01495  -0.00395   0.00062   0.01230   0.02156
  86        3PX        -0.00572  -0.01051   0.16666  -0.00563   0.20606
  87        3PY        -0.02774  -0.00740   0.01355  -0.07509  -0.12699
  88        3PZ        -0.03252   0.00835   0.07908   0.12936  -0.07094
  89        4XX        -0.00364   0.00146  -0.00440   0.00759  -0.01337
  90        4YY        -0.00298   0.00037   0.00865   0.00260  -0.00053
  91        4ZZ        -0.00031  -0.00073   0.00487  -0.00802   0.00857
  92        4XY         0.00069   0.00057  -0.00143   0.00175   0.00643
  93        4XZ         0.00121   0.00059  -0.01141  -0.00037  -0.01677
  94        4YZ         0.00281   0.00056  -0.00087   0.00681   0.01089
  95 7   O  1S          0.00034  -0.00014  -0.00205  -0.00215   0.00384
  96        2S          0.00027  -0.00157  -0.00021   0.00925  -0.00236
  97        2PX        -0.00856   0.00759   0.00242   0.46791  -0.13839
  98        2PY        -0.02219   0.01235  -0.31006   0.08227  -0.18239
  99        2PZ         0.01433  -0.01092   0.32644   0.04475  -0.13818
 100        3S         -0.00975   0.00573   0.02731  -0.00683  -0.07596
 101        3PX        -0.00808   0.00376  -0.00893   0.31697  -0.11682
 102        3PY        -0.02159   0.01220  -0.20951   0.06114  -0.11059
 103        3PZ         0.01838  -0.01023   0.21991   0.02677  -0.08974
 104        4XX         0.00079  -0.00089  -0.00052  -0.01379   0.01574
 105        4YY        -0.00291   0.00069  -0.02769   0.01208  -0.00126
 106        4ZZ         0.00326  -0.00184   0.02398   0.00589   0.00063
 107        4XY        -0.00080  -0.00003   0.00543   0.02077  -0.00797
 108        4XZ        -0.00034   0.00060  -0.00791   0.01929  -0.00794
 109        4YZ         0.00042  -0.00004   0.00389   0.00705  -0.00820
 110 8   O  1S         -0.00282  -0.00223   0.00666   0.00903   0.00256
 111        2S          0.01247   0.00428  -0.02199  -0.01918  -0.00652
 112        2PX        -0.03276   0.00881  -0.22948   0.10326   0.33119
 113        2PY         0.04158  -0.01390  -0.08987   0.04853  -0.21728
 114        2PZ        -0.02869  -0.01202   0.22917  -0.00621  -0.05602
 115        3S         -0.01513   0.01312   0.02081  -0.04723   0.00288
 116        3PX        -0.02460   0.00741  -0.17682   0.06632   0.23100
 117        3PY         0.04027  -0.01028  -0.06525   0.03590  -0.15552
 118        3PZ        -0.01767  -0.00597   0.17002  -0.01907  -0.03197
 119        4XX         0.00366  -0.00072  -0.00349   0.00445   0.00056
 120        4YY        -0.00008   0.00072  -0.00701   0.00144   0.00607
 121        4ZZ         0.00095  -0.00129   0.00911  -0.00203  -0.00519
 122        4XY         0.00087  -0.00048   0.00521  -0.00130  -0.00578
 123        4XZ        -0.00134  -0.00023  -0.01106   0.00362   0.01474
 124        4YZ         0.00198  -0.00028  -0.01189   0.00558  -0.00792
 125 9   H  1S         -0.00544  -0.00656  -0.02273   0.04514   0.00909
 126        2S         -0.00667  -0.00647  -0.01953   0.03025   0.01394
                          36        37        38        39        40
                           O         O         V         V         V
     Eigenvalues --    -0.35659  -0.34419  -0.06144  -0.03221   0.00114
   1 1   C  1S         -0.01938  -0.01512   0.04031   0.06868  -0.10685
   2        2S          0.03531   0.02986  -0.09200  -0.15633   0.25703
   3        2PX         0.09474   0.07063  -0.10979  -0.25094   0.22515
   4        2PY        -0.01035  -0.00909   0.10853  -0.18180  -0.20101
   5        2PZ         0.00123   0.00342  -0.10496   0.14292  -0.03697
   6        3S          0.13845   0.09897  -0.27184  -0.50718   0.67877
   7        3PX         0.04132   0.02575  -0.07873  -0.25441   0.16023
   8        3PY         0.01509  -0.04707   0.21214  -0.24509  -0.22019
   9        3PZ        -0.04493   0.01680  -0.11784   0.17100  -0.04849
  10        4XX         0.00915   0.00552   0.00551  -0.00253  -0.01949
  11        4YY        -0.00473  -0.00338   0.00453   0.00726   0.00038
  12        4ZZ        -0.00527  -0.00339  -0.00140   0.01042  -0.00681
  13        4XY        -0.00058  -0.00205   0.01242  -0.03031  -0.01791
  14        4XZ        -0.00369   0.00236  -0.01604   0.01762  -0.00684
  15        4YZ         0.00063  -0.00048   0.00047   0.00553   0.00523
  16 2   F  1S          0.00463   0.00060   0.00696  -0.02044   0.02006
  17        2S          0.00106   0.00069  -0.01450   0.03435  -0.04950
  18        2PX        -0.11894  -0.02178  -0.03361   0.12654  -0.10582
  19        2PY        -0.00852   0.00118  -0.03559   0.05769   0.05332
  20        2PZ        -0.00842  -0.00943  -0.01608   0.09907  -0.10269
  21        3S         -0.06032  -0.00725  -0.05371   0.17252  -0.13739
  22        3PX        -0.09077  -0.01879  -0.02579   0.12356  -0.08863
[...]
 107        4XY         0.00000   0.00221
 108        4XZ        -0.00000  -0.00000   0.00184
 109        4YZ        -0.00000   0.00000  -0.00000   0.00171
 110 8   O  1S         -0.00000  -0.00000   0.00000   0.00000   2.07950
 111        2S          0.00000   0.00000  -0.00000  -0.00000  -0.04346
 112        2PX         0.00000   0.00000  -0.00000   0.00000   0.00000
 113        2PY         0.00000   0.00000  -0.00000  -0.00000   0.00000
 114        2PZ        -0.00000   0.00000  -0.00000   0.00000   0.00000
 115        3S          0.00012   0.00000  -0.00000  -0.00000  -0.04393
 116        3PX         0.00000   0.00001  -0.00000   0.00000   0.00000
 117        3PY         0.00016   0.00000  -0.00000  -0.00002   0.00000
 118        3PZ         0.00000   0.00000  -0.00000   0.00001   0.00000
 119        4XX        -0.00000  -0.00000  -0.00000  -0.00000  -0.00043
 120        4YY        -0.00000  -0.00000   0.00000   0.00000  -0.00058
 121        4ZZ        -0.00000  -0.00000  -0.00000   0.00000  -0.00039
 122        4XY         0.00000   0.00000   0.00000   0.00000  -0.00000
 123        4XZ         0.00000   0.00000  -0.00000   0.00000  -0.00000
 124        4YZ         0.00000  -0.00000  -0.00000   0.00000   0.00000
 125 9   H  1S         -0.00000  -0.00000   0.00000   0.00000  -0.00018
 126        2S         -0.00002  -0.00000   0.00000   0.00000   0.00038
                         111       112       113       114       115
 111        2S          0.52236
 112        2PX         0.00000   0.70784
 113        2PY         0.00000  -0.00000   0.59627
 114        2PZ         0.00000  -0.00000   0.00000   0.65104
 115        3S          0.47548   0.00000   0.00000   0.00000   0.80887
 116        3PX         0.00000   0.25265  -0.00000  -0.00000   0.00000
 117        3PY         0.00000  -0.00000   0.19873   0.00000   0.00000
 118        3PZ         0.00000  -0.00000  -0.00000   0.22428   0.00000
 119        4XX        -0.00344   0.00000   0.00000   0.00000  -0.00673
 120        4YY         0.00189   0.00000   0.00000   0.00000   0.00152
 121        4ZZ        -0.00511   0.00000   0.00000   0.00000  -0.01231
 122        4XY         0.00000   0.00000   0.00000   0.00000   0.00000
 123        4XZ         0.00000   0.00000   0.00000   0.00000   0.00000
 124        4YZ        -0.00000   0.00000   0.00000   0.00000  -0.00000
 125 9   H  1S          0.00403   0.01047   0.01099   0.01880   0.00267
 126        2S         -0.00598   0.00738   0.00811   0.01320  -0.03045
                         116       117       118       119       120
 116        3PX         0.36109
 117        3PY        -0.00000   0.27001
 118        3PZ        -0.00000   0.00000   0.30966
 119        4XX         0.00000   0.00000   0.00000   0.00053
 120        4YY         0.00000   0.00000   0.00000   0.00004   0.00101
 121        4ZZ         0.00000   0.00000   0.00000   0.00001  -0.00012
 122        4XY         0.00000   0.00000   0.00000  -0.00000  -0.00000
 123        4XZ         0.00000   0.00000   0.00000  -0.00000   0.00000
 124        4YZ         0.00000   0.00000   0.00000  -0.00000   0.00000
 125 9   H  1S          0.02289   0.02218   0.04380  -0.00019  -0.00070
 126        2S          0.01696   0.01773   0.03170  -0.00001  -0.00115
                         121       122       123       124       125
 121        4ZZ         0.00268
 122        4XY         0.00000   0.00070
 123        4XZ         0.00000   0.00000   0.00172
 124        4YZ         0.00000   0.00000   0.00000   0.00172
 125 9   H  1S          0.00273   0.00021   0.00169   0.00114   0.15219
 126        2S          0.00370   0.00000   0.00038   0.00028   0.07062
                         126
 126        2S          0.08225
     Gross orbital populations:
                           1
   1 1   C  1S          1.99223
   2        2S          0.72348
   3        2PX         0.66164
   4        2PY         0.53761
   5        2PZ         0.53080
   6        3S          0.37960
   7        3PX         0.18562
   8        3PY         0.13087
   9        3PZ         0.13456
  10        4XX         0.01491
  11        4YY         0.00611
  12        4ZZ         0.00409
  13        4XY         0.02256
  14        4XZ         0.01971
  15        4YZ         0.03024
  16 2   F  1S          1.99336
  17        2S          0.95538
  18        2PX         1.13453
  19        2PY         1.19208
  20        2PZ         0.95271
  21        3S          0.98427
  22        3PX         0.69800
  23        3PY         0.71936
  24        3PZ         0.57027
  25        4XX         0.00991
  26        4YY         0.00557
  27        4ZZ         0.02990
  28        4XY         0.00064
  29        4XZ         0.00492
  30        4YZ         0.00273
  31 3   F  1S          1.99331
  32        2S          0.95757
  33        2PX         1.14664
  34        2PY         1.01331
  35        2PZ         1.13459
  36        3S          0.96558
  37        3PX         0.69093
  38        3PY         0.58530
  39        3PZ         0.66878
  40        4XX         0.01069
  41        4YY         0.02468
  42        4ZZ         0.01208
  43        4XY         0.00426
  44        4XZ         0.00173
  45        4YZ         0.00519
  46 4   F  1S          1.99336
  47        2S          0.95495
  48        2PX         1.09619
  49        2PY         1.03389
  50        2PZ         1.14737
  51        3S          0.98623
  52        3PX         0.68044
  53        3PY         0.62563
  54        3PZ         0.69334
  55        4XX         0.01286
  56        4YY         0.02050
  57        4ZZ         0.00922
  58        4XY         0.00452
  59        4XZ         0.00198
  60        4YZ         0.00364
  61 5   S  1S          1.99861
  62        2S          1.98812
  63        2PX         1.98866
  64        2PY         1.98859
  65        2PZ         1.98891
  66        3S          1.34126
  67        3PX         0.90326
  68        3PY         0.83509
  69        3PZ         0.86017
  70        4S         -0.04468
  71        4PX         0.15648
  72        4PY         0.15638
  73        4PZ         0.10404
  74        5XX         0.07197
  75        5YY         0.06373
  76        5ZZ         0.08713
  77        5XY         0.07835
  78        5XZ         0.11128
  79        5YZ         0.15132
  80 6   O  1S          1.99269
  81        2S          0.93140
  82        2PX         0.95253
  83        2PY         1.01538
  84        2PZ         0.87178
  85        3S          1.00701
  86        3PX         0.61603
  87        3PY         0.66270
  88        3PZ         0.42512
  89        4XX        -0.00588
  90        4YY        -0.01045
  91        4ZZ         0.01139
  92        4XY         0.00180
  93        4XZ         0.00911
  94        4YZ         0.00751
  95 7   O  1S          1.99251
  96        2S          0.93554
  97        2PX         0.98185
  98        2PY         0.95919
  99        2PZ         0.96180
 100        3S          0.92489
 101        3PX         0.60023
 102        3PY         0.47319
 103        3PZ         0.50343
 104        4XX        -0.00308
 105        4YY         0.00752
 106        4ZZ         0.00466
 107        4XY         0.00747
 108        4XZ         0.00624
 109        4YZ         0.00913
 110 8   O  1S          1.99277
 111        2S          0.92267
 112        2PX         0.99715
 113        2PY         0.86265
 114        2PZ         0.92944
 115        3S          1.04433
 116        3PX         0.69070
 117        3PY         0.54552
 118        3PZ         0.63292
 119        4XX        -0.00838
 120        4YY         0.00792
 121        4ZZ        -0.00454
 122        4XY         0.00206
 123        4XZ         0.00487
 124        4YZ         0.00751
 125 9   H  1S          0.36356
 126        2S          0.22103
          Condensed to atoms (all electrons):
               1          2          3          4          5          6
     1  C    4.749482   0.200418   0.220479   0.207045   0.085307  -0.029857
     2  F    0.200418   9.105137  -0.029607  -0.032622   0.010882   0.000186
     3  F    0.220479  -0.029607   9.048224  -0.031386   0.007507  -0.000279
     4  F    0.207045  -0.032622  -0.031386   9.113242   0.007682  -0.000043
     5  S    0.085307   0.010882   0.007507   0.007682  13.614026   0.434975
     6  O   -0.029857   0.000186  -0.000279  -0.000043   0.434975   8.176314
     7  O   -0.038461  -0.000357   0.000219   0.000034   0.507995  -0.043961
     8  O   -0.021284  -0.000385  -0.000354   0.000167   0.157907  -0.050944
     9  H    0.000911   0.000001  -0.000165  -0.000004   0.002388   0.001740
               7          8          9
     1  C   -0.038461  -0.021284   0.000911
     2  F   -0.000357  -0.000385   0.000001
     3  F    0.000219  -0.000354  -0.000165
     4  F    0.000034   0.000167  -0.000004
     5  S    0.507995   0.157907   0.002388
     6  O   -0.043961  -0.050944   0.001740
     7  O    7.989298  -0.051480   0.001278
     8  O   -0.051480   8.391211   0.202765
     9  H    0.001278   0.202765   0.375672
 Mulliken charges:
               1
     1  C    0.625961
     2  F   -0.253653
     3  F   -0.214639
     4  F   -0.264114
     5  S    1.171331
     6  O   -0.488131
     7  O   -0.364566
     8  O   -0.627602
     9  H    0.415414
 Sum of Mulliken charges =  -0.00000
 Mulliken charges with hydrogens summed into heavy atoms:
               1
     1  C    0.625961
     2  F   -0.253653
     3  F   -0.214639
     4  F   -0.264114
     5  S    1.171331
     6  O   -0.488131
     7  O   -0.364566
     8  O   -0.212189
 Electronic spatial extent (au):  <R**2>=            914.7701
 Charge=             -0.0000 electrons
 Dipole moment (field-independent basis, Debye):
    X=              0.1919    Y=              2.1394    Z=              0.5506  Tot=              2.2174
 Quadrupole moment (field-independent basis, Debye-Ang):
   XX=            -48.1643   YY=            -46.6164   ZZ=            -53.8405
   XY=              4.8757   XZ=              0.3734   YZ=              1.2036
 Traceless Quadrupole moment (field-independent basis, Debye-Ang):
   XX=              1.3761   YY=              2.9240   ZZ=             -4.3001
   XY=              4.8757   XZ=              0.3734   YZ=              1.2036
 Octapole moment (field-independent basis, Debye-Ang**2):
  XXX=             -9.0997  YYY=             11.6802  ZZZ=             -3.0734  XYY=              2.7971
  XXY=             13.3508  XXZ=              0.9273  XZZ=            -11.6914  YZZ=              0.3753
  YYZ=              4.6317  XYZ=              1.8963
 Hexadecapole moment (field-independent basis, Debye-Ang**3):
 XXXX=           -484.4715 YYYY=           -197.8022 ZZZZ=           -214.5594 XXXY=             24.2734
 XXXZ=              1.5701 YYYX=             24.3188 YYYZ=              4.1333 ZZZX=             -4.9581
 ZZZY=              2.3001 XXYY=           -100.6143 XXZZ=           -129.4366 YYZZ=            -73.5929
 XXYZ=              5.2720 YYXZ=              7.1095 ZZXY=             -0.1119
 N-N= 5.507240239144D+02 E-N=-3.380184612842D+03  KE= 9.558291186714D+02
 Orbital energies and kinetic energies (alpha):
                                 1                 2
   1         O               -89.172696        120.981322
   2         O               -24.785995         37.083388
   3         O               -24.760659         37.084315
   4         O               -24.757622         37.084416
   5         O               -19.237453         29.033100
   6         O               -19.211886         29.023778
   7         O               -19.196201         29.028680
   8         O               -10.501587         15.902576
   9         O                -8.199981         18.521960
  10         O                -6.164814         17.520825
  11         O                -6.163687         17.507351
  12         O                -6.163128         17.515404
  13         O                -1.325494          3.334827
  14         O                -1.249254          3.791675
  15         O                -1.225524          3.860659
  16         O                -1.203491          2.839631
  17         O                -1.074309          2.921566
  18         O                -1.020309          2.810766
  19         O                -0.793722          2.542174
  20         O                -0.680930          2.921029
  21         O                -0.615344          2.734674
  22         O                -0.606528          2.611100
  23         O                -0.593903          2.580285
  24         O                -0.551059          2.508675
  25         O                -0.511924          2.694991
  26         O                -0.497307          2.896887
  27         O                -0.487387          3.189243
  28         O                -0.481013          3.023382
  29         O                -0.461844          2.107597
  30         O                -0.455338          3.308622
  31         O                -0.445133          3.368391
  32         O                -0.429206          3.499411
  33         O                -0.404865          2.287611
  34         O                -0.389723          2.513228
  35         O                -0.369781          2.373904
  36         O                -0.356588          2.432474
  37         O                -0.344187          2.474642
  38         V                -0.061440          2.042523
  39         V                -0.032209          2.842692
  40         V                 0.001143          3.539167
  41         V                 0.017722          2.746884
  42         V                 0.086509          3.592818
  43         V                 0.114906          3.083104
  44         V                 0.137019          3.814232
  45         V                 0.192473          3.012548
  46         V                 0.284801          2.154621
  47         V                 0.310930          1.938032
  48         V                 0.337994          2.180079
  49         V                 0.401754          2.789084
  50         V                 0.457762          2.490775
  51         V                 0.497071          2.531826
  52         V                 0.518533          2.403808
  53         V                 0.647507          2.188731
  54         V                 0.668817          2.747891
  55         V                 0.689192          2.528290
  56         V                 0.750178          2.587066
  57         V                 0.760224          2.561320
  58         V                 0.798241          2.770073
  59         V                 0.859555          3.071064
  60         V                 0.873164          2.656540
  61         V                 0.927337          3.050830
  62         V                 0.966983          3.290775
  63         V                 0.974727          3.305121
  64         V                 0.998596          3.621926
  65         V                 1.012064          3.691137
  66         V                 1.036568          3.408972
  67         V                 1.080391          3.589895
  68         V                 1.095075          3.662755
  69         V                 1.100320          3.766127
  70         V                 1.130605          3.694081
  71         V                 1.169295          3.514921
  72         V                 1.185281          3.529008
  73         V                 1.227362          4.689918
  74         V                 1.270484          3.256528
  75         V                 1.288776          4.391809
  76         V                 1.324265          3.821401
  77         V                 1.346565          2.934084
  78         V                 1.352424          2.921894
  79         V                 1.358876          3.450373
  80         V                 1.380222          3.747530
  81         V                 1.524345          3.121696
  82         V                 1.549407          2.955701
  83         V                 1.574205          3.484897
  84         V                 1.601466          3.409794
  85         V                 1.687477          3.160629
  86         V                 1.711042          2.901557
  87         V                 1.732526          2.965005
  88         V                 1.749194          3.045140
  89         V                 1.768172          3.005622
  90         V                 1.784354          2.982978
  91         V                 1.787952          3.008553
  92         V                 1.797503          2.955459
  93         V                 1.812842          3.168329
  94         V                 1.825841          2.952314
  95         V                 1.831921          3.189685
  96         V                 1.863031          3.149994
  97         V                 1.903434          3.269478
  98         V                 1.920414          3.382984
  99         V                 1.944117          3.672670
 100         V                 1.970959          3.515568
 101         V                 1.986301          3.627309
 102         V                 2.008986          3.626303
 103         V                 2.052220          3.719069
 104         V                 2.090434          3.568797
 105         V                 2.110276          3.649784
 106         V                 2.142405          3.632419
 107         V                 2.170767          3.665185
 108         V                 2.183773          3.884751
 109         V                 2.293354          3.974688
 110         V                 2.372853          4.536208
 111         V                 2.571872          4.004571
 112         V                 2.615094          4.045462
 113         V                 2.641155          4.330032
 114         V                 2.726832          4.835761
 115         V                 2.818240          5.214602
 116         V                 2.852519          6.142322
 117         V                 3.002697          5.774653
 118         V                 3.026065          5.696909
 119         V                 3.546031          9.970304
 120         V                 3.847321         10.746962
 121         V                 3.858215         11.630318
 122         V                 3.940169         11.693667
 123         V                 4.234543         11.615336
 124         V                 4.286784         10.463019
 125         V                 4.342544         11.484641
 126         V                 5.061848         13.920404
 Total kinetic energy from orbitals= 9.558291186714D+02
 Unable to Open any file for archive entry.
 1\1\GINC-SPARTAN-BM162\SP\RB3LYP\6-31G(d)\C1H1F3O3S1\AKHALILOV\20-Mar-
 2025\0\\# B3LYP/6-31G(d) pop=full density=current\\PFMS Time step 35\\
 0,1\C,0,-0.915228,0.025929,-0.220787\F,0,-1.056889,0.1615,-1.621726\F,
 0,-1.585232,1.05055,0.354411\F,0,-1.677668,-1.147627,0.060444\S,0,0.85
 5344,-0.176994,0.270378\O,0,1.022035,-0.179807,1.729043\O,0,1.530192,-
 1.046415,-0.538244\O,0,1.442372,1.360662,-0.184311\H,0,1.797386,1.9581
 01,0.828328\\Version=ES64L-G16RevC.01\State=1-A\HF=-961.9308117\RMSD=5
 .099e-09\Dipole=-0.0447435,0.8170043,0.3026473\Quadrupole=0.1250938,2.
 2358628,-2.3609566,2.9856538,1.4737851,2.3737458\PG=C01 [X(C1H1F3O3S1)
 ]\\@
 The archive entry for this job was punched.


 The juvenile sea squirt wanders through the sea searching
 for a suitable rock or hunk of coral to cling to and make
 its home for life.  For this task it has a rudimentary
 nervous system.  When it finds its spot and takes root, it
 doesn't need its brain any more so it eats it.
 It's rather like getting tenure.

                               -- source unknown
 Job cpu time:       0 days  0 hours  0 minutes 10.6 seconds.
 Elapsed time:       0 days  0 hours  0 minutes  3.2 seconds.
 File lengths (MBytes):  RWF=     10 Int=      0 D2E=      0 Chk=      2 Scr=      1
 Normal termination of Gaussian 16 at Thu Mar 20 00:10:36 2025.
