 Entering Gaussian System, Link 0=g16
 Input=PFMS_1000K_step0015.gjf
 Output=PFMS_1000K_step0015.log
 Initial command:
 /apps/easybuild-2022/easybuild/software/Compiler/NVHPC/22.11-CUDA-11.7.0/Gaussian/g16c01-CUDA-11.7.0/g16/l1.exe "/tmp/Gau-267830.inp" -scrdir="/tmp/"
 Default is to use a total of   4 processors:
                                4 via shared-memory
                                1 via Linda
 Entering Link 1 = /apps/easybuild-2022/easybuild/software/Compiler/NVHPC/22.11-CUDA-11.7.0/Gaussian/g16c01-CUDA-11.7.0/g16/l1.exe PID=    267831.
  
 Copyright (c) 1988-2019, Gaussian, Inc.  All Rights Reserved.
  
 This is part of the Gaussian(R) 16 program.  It is based on
 the Gaussian(R) 09 system (copyright 2009, Gaussian, Inc.),
 the Gaussian(R) 03 system (copyright 2003, Gaussian, Inc.),
 the Gaussian(R) 98 system (copyright 1998, Gaussian, Inc.),
 the Gaussian(R) 94 system (copyright 1995, Gaussian, Inc.),
 the Gaussian 92(TM) system (copyright 1992, Gaussian, Inc.),
 the Gaussian 90(TM) system (copyright 1990, Gaussian, Inc.),
 the Gaussian 88(TM) system (copyright 1988, Gaussian, Inc.),
 the Gaussian 86(TM) system (copyright 1986, Carnegie Mellon
 University), and the Gaussian 82(TM) system (copyright 1983,
 Carnegie Mellon University). Gaussian is a federally registered
 trademark of Gaussian, Inc.
  
 This software contains proprietary and confidential information,
 including trade secrets, belonging to Gaussian, Inc.
  
 This software is provided under written license and may be
 used, copied, transmitted, or stored only in accord with that
 written license.
  
 The following legend is applicable only to US Government
 contracts under FAR:
  
                    RESTRICTED RIGHTS LEGEND
  
 Use, reproduction and disclosure by the US Government is
 subject to restrictions as set forth in subparagraphs (a)
 and (c) of the Commercial Computer Software - Restricted
 Rights clause in FAR 52.227-19.
  
 Gaussian, Inc.
 340 Quinnipiac St., Bldg. 40, Wallingford CT 06492
  
  
 ---------------------------------------------------------------
 Warning -- This program may not be used in any manner that
 competes with the business of Gaussian, Inc. or will provide
 assistance to any competitor of Gaussian, Inc.  The licensee
 of this program is prohibited from giving any competitor of
 Gaussian, Inc. access to this program.  By using this program,
 the user acknowledges that Gaussian, Inc. is engaged in the
 business of creating and licensing software in the field of
 computational chemistry and represents and warrants to the
 licensee that it is not a competitor of Gaussian, Inc. and that
 it will not use this program in any manner prohibited above.
 ---------------------------------------------------------------
  

 Cite this work as:
 Gaussian 16, Revision C.01,
 M. J. Frisch, G. W. Trucks, H. B. Schlegel, G. E. Scuseria, 
 M. A. Robb, J. R. Cheeseman, G. Scalmani, V. Barone, 
 G. A. Petersson, H. Nakatsuji, X. Li, M. Caricato, A. V. Marenich, 
 J. Bloino, B. G. Janesko, R. Gomperts, B. Mennucci, H. P. Hratchian, 
 J. V. Ortiz, A. F. Izmaylov, J. L. Sonnenberg, D. Williams-Young, 
 F. Ding, F. Lipparini, F. Egidi, J. Goings, B. Peng, A. Petrone, 
 T. Henderson, D. Ranasinghe, V. G. Zakrzewski, J. Gao, N. Rega, 
 G. Zheng, W. Liang, M. Hada, M. Ehara, K. Toyota, R. Fukuda, 
 J. Hasegawa, M. Ishida, T. Nakajima, Y. Honda, O. Kitao, H. Nakai, 
 T. Vreven, K. Throssell, J. A. Montgomery, Jr., J. E. Peralta, 
 F. Ogliaro, M. J. Bearpark, J. J. Heyd, E. N. Brothers, K. N. Kudin, 
 V. N. Staroverov, T. A. Keith, R. Kobayashi, J. Normand, 
 K. Raghavachari, A. P. Rendell, J. C. Burant, S. S. Iyengar, 
 J. Tomasi, M. Cossi, J. M. Millam, M. Klene, C. Adamo, R. Cammi, 
 J. W. Ochterski, R. L. Martin, K. Morokuma, O. Farkas, 
 J. B. Foresman, and D. J. Fox, Gaussian, Inc., Wallingford CT, 2019.
 
 ******************************************
 Gaussian 16:  ES64L-G16RevC.01  3-Jul-2019
                20-Mar-2025 
 ******************************************
 %chk=PFMS_1000K_step0015.chk
 %mem=8GB
 %nprocshared=4
 Will use up to    4 processors via shared memory.
 -----------------------------------------
 # B3LYP/6-31G(d) pop=full density=current
 -----------------------------------------
 1/30=1,38=1,172=1/1;
 2/12=2,17=6,18=5,40=1/2;
 3/5=1,6=6,7=1,11=2,25=1,30=1,74=-5/1,2,3;
 4//1;
 5/5=2,38=5/2;
 6/7=3,22=-1,28=1/1;
 99/5=1,9=1/99;
 -----------------
 PFMS Time step 15
 -----------------
 Symbolic Z-matrix:
 Charge =  0 Multiplicity = 1
 C                    -0.91771   0.00734  -0.23601 
 F                    -1.06311   0.17247  -1.60825 
 F                    -1.56616   1.04797   0.35594 
 F                    -1.66017  -1.13542   0.06464 
 S                     0.85276  -0.16056   0.26655 
 O                     0.9994   -0.17204   1.7196 
 O                     1.55371  -1.07437  -0.54297 
 O                     1.41359   1.34164  -0.17118 
 H                     1.77994   1.89216   0.78551 
 
                          Input orientation:                          
 ---------------------------------------------------------------------
 Center     Atomic      Atomic             Coordinates (Angstroms)
 Number     Number       Type             X           Y           Z
 ---------------------------------------------------------------------
      1          6           0       -0.917710    0.007338   -0.236013
      2          9           0       -1.063113    0.172472   -1.608251
      3          9           0       -1.566163    1.047968    0.355937
      4          9           0       -1.660171   -1.135416    0.064636
      5         16           0        0.852755   -0.160564    0.266552
      6          8           0        0.999395   -0.172038    1.719603
      7          8           0        1.553705   -1.074368   -0.542966
      8          8           0        1.413593    1.341638   -0.171175
      9          1           0        1.779943    1.892158    0.785505
 ---------------------------------------------------------------------
                    Distance matrix (angstroms):
                    1          2          3          4          5
     1  C    0.000000
     2  F    1.389766   0.000000
     3  F    1.361546   2.208526   0.000000
     4  F    1.395537   2.205811   2.204736   0.000000
     5  S    1.848055   2.701176   2.705495   2.702944   0.000000
     6  O    2.744431   3.930298   3.151204   3.277240   1.460477
     7  O    2.715180   3.088232   3.878906   3.271377   1.407724
     8  O    2.686919   3.092929   3.040236   3.954672   1.662154
     9  H    3.445777   4.095162   3.477587   4.638991   2.311419
                    6          7          8          9
     6  O    0.000000
     7  O    2.498135   0.000000
     8  O    2.457197   2.448458   0.000000
     9  H    2.396393   3.258266   1.162979   0.000000
 Stoichiometry    CHF3O3S
 Framework group  C1[X(CHF3O3S)]
 Deg. of freedom    21
 Full point group                 C1      NOp   1
 Largest Abelian subgroup         C1      NOp   1
 Largest concise Abelian subgroup C1      NOp   1
                         Standard orientation:                         
 ---------------------------------------------------------------------
 Center     Atomic      Atomic             Coordinates (Angstroms)
 Number     Number       Type             X           Y           Z
 ---------------------------------------------------------------------
      1          6           0       -0.990187    0.031398    0.014073
      2          9           0       -1.499581   -0.144558   -1.266944
      3          9           0       -1.419317    1.250042    0.443681
      4          9           0       -1.657802   -0.913510    0.794434
      5         16           0        0.844048   -0.185681    0.075465
      6          8           0        1.381526    0.158472    1.389111
      7          8           0        1.268213   -1.343307   -0.604001
      8          8           0        1.310883    1.088702   -0.884102
      9          1           0        1.941682    1.823804   -0.240488
 ---------------------------------------------------------------------
 Rotational constants (GHZ):           2.6024384           1.4411144           1.4288857
 Standard basis: 6-31G(d) (6D, 7F)
 There are   126 symmetry adapted cartesian basis functions of A   symmetry.
 There are   126 symmetry adapted basis functions of A   symmetry.
   126 basis functions,   252 primitive gaussians,   126 cartesian basis functions
    37 alpha electrons       37 beta electrons
       nuclear repulsion energy       553.3981374268 Hartrees.
 NAtoms=    9 NActive=    9 NUniq=    9 SFac= 1.00D+00 NAtFMM=   60 NAOKFM=F Big=F
 Integral buffers will be    131072 words long.
 Raffenetti 2 integral format.
 Two-electron integral symmetry is turned on.
 One-electron integrals computed using PRISM.
 NBasis=   126 RedAO= T EigKep=  2.61D-03  NBF=   126
 NBsUse=   126 1.00D-06 EigRej= -1.00D+00 NBFU=   126
 ExpMin= 1.17D-01 ExpMax= 2.19D+04 ExpMxC= 3.30D+03 IAcc=3 IRadAn=         5 AccDes= 0.00D+00
 Harris functional with IExCor=  402 and IRadAn=       5 diagonalized for initial guess.
 HarFok:  IExCor=  402 AccDes= 0.00D+00 IRadAn=         5 IDoV= 1 UseB2=F ITyADJ=14
 ICtDFT=  3500011 ScaDFX=  1.000000  1.000000  1.000000  1.000000
 FoFCou: FMM=F IPFlag=           0 FMFlag=      100000 FMFlg1=           0
         NFxFlg=           0 DoJE=T BraDBF=F KetDBF=T FulRan=T
         wScrn=  0.000000 ICntrl=       500 IOpCl=  0 I1Cent=   200000004 NGrid=           0
         NMat0=    1 NMatS0=      1 NMatT0=    0 NMatD0=    1 NMtDS0=    0 NMtDT0=    0
 Petite list used in FoFCou.
 Keep R1 ints in memory in canonical form, NReq=35818892.
 Requested convergence on RMS density matrix=1.00D-08 within 128 cycles.
 Requested convergence on MAX density matrix=1.00D-06.
 Requested convergence on             energy=1.00D-06.
 No special actions if energy rises.
 Integral accuracy reduced to 1.0D-05 until final iterations.
 Initial convergence to 1.0D-05 achieved.  Increase integral accuracy.
 SCF Done:  E(RB3LYP) =  -961.959781687     A.U. after   14 cycles
            NFock= 14  Conv=0.78D-08     -V/T= 2.0064

 **********************************************************************

            Population analysis using the SCF Density.

 **********************************************************************

 Orbital symmetries:
       Occupied  (A) (A) (A) (A) (A) (A) (A) (A) (A) (A) (A) (A)
                 (A) (A) (A) (A) (A) (A) (A) (A) (A) (A) (A) (A)
                 (A) (A) (A) (A) (A) (A) (A) (A) (A) (A) (A) (A)
                 (A)
       Virtual   (A) (A) (A) (A) (A) (A) (A) (A) (A) (A) (A) (A)
                 (A) (A) (A) (A) (A) (A) (A) (A) (A) (A) (A) (A)
                 (A) (A) (A) (A) (A) (A) (A) (A) (A) (A) (A) (A)
                 (A) (A) (A) (A) (A) (A) (A) (A) (A) (A) (A) (A)
                 (A) (A) (A) (A) (A) (A) (A) (A) (A) (A) (A) (A)
                 (A) (A) (A) (A) (A) (A) (A) (A) (A) (A) (A) (A)
                 (A) (A) (A) (A) (A) (A) (A) (A) (A) (A) (A) (A)
                 (A) (A) (A) (A) (A)
 The electronic state is 1-A.
 Alpha  occ. eigenvalues --  -89.17329 -24.77818 -24.76577 -24.76562 -19.24240
 Alpha  occ. eigenvalues --  -19.20401 -19.19420 -10.50027  -8.19915  -6.16438
 Alpha  occ. eigenvalues --   -6.16259  -6.16249  -1.32988  -1.25205  -1.23951
 Alpha  occ. eigenvalues --   -1.18924  -1.06843  -1.03919  -0.79378  -0.68518
 Alpha  occ. eigenvalues --   -0.61919  -0.61365  -0.60205  -0.55141  -0.51102
 Alpha  occ. eigenvalues --   -0.49379  -0.49048  -0.48721  -0.46642  -0.45730
 Alpha  occ. eigenvalues --   -0.45156  -0.43468  -0.40208  -0.38143  -0.37062
 Alpha  occ. eigenvalues --   -0.35965  -0.34278
 Alpha virt. eigenvalues --   -0.04785  -0.02182   0.01337   0.02451   0.09300
 Alpha virt. eigenvalues --    0.12561   0.14797   0.18952   0.28450   0.31258
 Alpha virt. eigenvalues --    0.34087   0.39321   0.45899   0.49162   0.51547
 Alpha virt. eigenvalues --    0.64515   0.67275   0.69374   0.75435   0.77664
 Alpha virt. eigenvalues --    0.79890   0.86187   0.87677   0.92956   0.96782
 Alpha virt. eigenvalues --    0.98382   0.99957   1.01286   1.02514   1.08103
 Alpha virt. eigenvalues --    1.10093   1.10361   1.12236   1.16723   1.18381
 Alpha virt. eigenvalues --    1.19127   1.27296   1.29031   1.32255   1.34441
 Alpha virt. eigenvalues --    1.34707   1.36137   1.37804   1.51915   1.55046
 Alpha virt. eigenvalues --    1.58448   1.60016   1.68026   1.71516   1.73853
 Alpha virt. eigenvalues --    1.75130   1.76945   1.77894   1.79039   1.79731
 Alpha virt. eigenvalues --    1.81712   1.82103   1.83134   1.86668   1.91062
 Alpha virt. eigenvalues --    1.92814   1.94978   1.99265   2.00505   2.01955
 Alpha virt. eigenvalues --    2.07140   2.10745   2.13946   2.14777   2.18471
 Alpha virt. eigenvalues --    2.19229   2.28578   2.41931   2.61347   2.63382
 Alpha virt. eigenvalues --    2.63787   2.73387   2.80712   2.87648   3.00580
 Alpha virt. eigenvalues --    3.01820   3.55924   3.83349   3.86490   3.93621
 Alpha virt. eigenvalues --    4.27362   4.30554   4.36321   5.07124
     Molecular Orbital Coefficients:
                           1         2         3         4         5
                           O         O         O         O         O
     Eigenvalues --   -89.17329 -24.77818 -24.76577 -24.76562 -19.24240
   1 1   C  1S         -0.00003  -0.00003  -0.00003  -0.00002  -0.00002
   2        2S         -0.00007   0.00003  -0.00006  -0.00005  -0.00015
   3        2PX         0.00005  -0.00030  -0.00031  -0.00036   0.00003
   4        2PY        -0.00000   0.00057  -0.00006  -0.00037   0.00000
   5        2PZ         0.00000   0.00019  -0.00053   0.00032   0.00002
   6        3S          0.00083   0.00039   0.00029   0.00010   0.00106
   7        3PX         0.00039   0.00051   0.00047   0.00041   0.00046
   8        3PY        -0.00008  -0.00010  -0.00010   0.00007  -0.00066
   9        3PZ        -0.00001   0.00005   0.00002  -0.00009   0.00000
  10        4XX        -0.00005   0.00006   0.00011   0.00018   0.00005
  11        4YY        -0.00000   0.00043   0.00006   0.00031  -0.00003
  12        4ZZ        -0.00000   0.00007   0.00052   0.00023  -0.00001
  13        4XY         0.00001  -0.00019   0.00004   0.00023   0.00003
  14        4XZ        -0.00000  -0.00007   0.00025  -0.00020  -0.00001
  15        4YZ         0.00000   0.00016   0.00007  -0.00023  -0.00003
  16 2   F  1S          0.00002   0.00007   0.99300  -0.00504  -0.00003
  17        2S          0.00011   0.00005   0.01972  -0.00004  -0.00018
  18        2PX         0.00001   0.00000   0.00028  -0.00000  -0.00004
  19        2PY        -0.00000   0.00001   0.00009  -0.00001  -0.00001
  20        2PZ        -0.00000   0.00001   0.00067   0.00002   0.00000
  21        3S         -0.00041   0.00001   0.01470  -0.00012   0.00051
  22        3PX        -0.00013  -0.00002  -0.00016   0.00001   0.00012
  23        3PY         0.00002  -0.00011  -0.00006   0.00007   0.00011
  24        3PZ        -0.00006  -0.00009  -0.00047  -0.00013  -0.00003
  25        4XX         0.00006   0.00003  -0.00798   0.00008  -0.00010
  26        4YY         0.00005  -0.00006  -0.00796   0.00005  -0.00016
  27        4ZZ         0.00007  -0.00006  -0.00834  -0.00005  -0.00016
  28        4XY        -0.00000   0.00001  -0.00003  -0.00003   0.00001
  29        4XZ        -0.00003  -0.00002  -0.00020   0.00000  -0.00001
  30        4YZ         0.00001  -0.00009  -0.00006   0.00007   0.00003
  31 3   F  1S          0.00002   0.99301  -0.00007  -0.00006  -0.00005
  32        2S          0.00009   0.01973   0.00004   0.00006  -0.00027
  33        2PX         0.00001   0.00026  -0.00000  -0.00000  -0.00001
  34        2PY         0.00000  -0.00068  -0.00001  -0.00002   0.00001
  35        2PZ         0.00000  -0.00024  -0.00002   0.00000   0.00001
  36        3S         -0.00035   0.01471   0.00004  -0.00006   0.00095
  37        3PX        -0.00013  -0.00015  -0.00001   0.00001   0.00010
  38        3PY         0.00005   0.00049   0.00007   0.00014  -0.00010
  39        3PZ         0.00001   0.00017   0.00013  -0.00003  -0.00008
  40        4XX         0.00005  -0.00797   0.00003   0.00004  -0.00016
  41        4YY         0.00006  -0.00834  -0.00003  -0.00011  -0.00019
  42        4ZZ         0.00005  -0.00800  -0.00009   0.00003  -0.00019
  43        4XY         0.00003   0.00017   0.00002  -0.00001  -0.00001
  44        4XZ         0.00001   0.00006  -0.00002   0.00003  -0.00001
  45        4YZ         0.00001  -0.00015  -0.00009   0.00004   0.00001
  46 4   F  1S          0.00002   0.00007   0.00505   0.99300   0.00005
  47        2S          0.00012   0.00008   0.00018   0.01970   0.00027
  48        2PX         0.00001   0.00001   0.00001   0.00037   0.00003
  49        2PY        -0.00001   0.00002   0.00001   0.00048   0.00000
  50        2PZ         0.00000  -0.00000  -0.00002  -0.00039  -0.00002
  51        3S         -0.00045  -0.00013  -0.00002   0.01479  -0.00096
  52        3PX        -0.00015  -0.00005  -0.00003  -0.00021  -0.00020
  53        3PY        -0.00002  -0.00016  -0.00002  -0.00032  -0.00006
  54        3PZ         0.00004   0.00000   0.00016   0.00026   0.00015
  55        4XX         0.00006   0.00005   0.00000  -0.00804   0.00017
  56        4YY         0.00008  -0.00011   0.00000  -0.00816   0.00020
  57        4ZZ         0.00007   0.00005  -0.00015  -0.00809   0.00017
  58        4XY        -0.00002  -0.00002  -0.00002  -0.00018  -0.00003
  59        4XZ         0.00002   0.00002   0.00001   0.00015   0.00003
  60        4YZ        -0.00001   0.00001   0.00005   0.00020   0.00001
  61 5   S  1S          0.99612   0.00000   0.00000   0.00000   0.00001
  62        2S          0.01487   0.00006   0.00005   0.00003   0.00004
  63        2PX        -0.00001   0.00001   0.00001   0.00001  -0.00000
  64        2PY         0.00002   0.00000  -0.00000  -0.00000  -0.00006
  65        2PZ        -0.00002   0.00000  -0.00000   0.00000   0.00005
  66        3S         -0.02414   0.00024   0.00020   0.00010   0.00006
  67        3PX         0.00009  -0.00009  -0.00009  -0.00011  -0.00011
  68        3PY        -0.00006   0.00002   0.00003   0.00002   0.00018
  69        3PZ         0.00003  -0.00003   0.00002   0.00000  -0.00014
  70        4S          0.00151  -0.00151  -0.00137  -0.00108  -0.00335
  71        4PX        -0.00002   0.00047   0.00053   0.00050   0.00034
  72        4PY        -0.00004  -0.00081  -0.00000   0.00020  -0.00061
  73        4PZ         0.00007  -0.00023   0.00075  -0.00017   0.00132
  74        5XX         0.00850   0.00003   0.00003   0.00002   0.00014
  75        5YY         0.00859   0.00004   0.00003   0.00003   0.00026
  76        5ZZ         0.00862   0.00002   0.00004   0.00002   0.00019
  77        5XY        -0.00001  -0.00001  -0.00001  -0.00000   0.00005
  78        5XZ         0.00001  -0.00000   0.00001  -0.00000  -0.00003
  79        5YZ         0.00005  -0.00000  -0.00001  -0.00003  -0.00020
  80 6   O  1S          0.00001  -0.00004   0.00002  -0.00003  -0.00005
  81        2S         -0.00000  -0.00019   0.00006  -0.00012  -0.00005
  82        2PX         0.00003   0.00002   0.00001   0.00003  -0.00001
  83        2PY         0.00003  -0.00002  -0.00001   0.00001  -0.00004
  84        2PZ         0.00011   0.00002  -0.00000   0.00001   0.00001
  85        3S          0.00041   0.00100  -0.00031   0.00058   0.00042
  86        3PX        -0.00007  -0.00021  -0.00005  -0.00018  -0.00005
  87        3PY        -0.00007   0.00011   0.00005  -0.00010   0.00012
  88        3PZ        -0.00028  -0.00022  -0.00000  -0.00009  -0.00022
  89        4XX         0.00001  -0.00011   0.00005  -0.00007  -0.00002
  90        4YY         0.00004  -0.00014   0.00005  -0.00008  -0.00006
  91        4ZZ        -0.00016  -0.00012   0.00005  -0.00009  -0.00006
  92        4XY        -0.00003  -0.00001  -0.00000   0.00001  -0.00002
  93        4XZ        -0.00011   0.00003   0.00000   0.00002   0.00002
  94        4YZ        -0.00006  -0.00002  -0.00001   0.00001   0.00005
  95 7   O  1S          0.00001   0.00001  -0.00004  -0.00003  -0.00004
  96        2S         -0.00003   0.00005  -0.00018  -0.00013  -0.00022
  97        2PX         0.00004   0.00001   0.00002   0.00003   0.00002
  98        2PY        -0.00014  -0.00001  -0.00002  -0.00000   0.00000
  99        2PZ        -0.00008   0.00001   0.00001  -0.00002   0.00003
 100        3S          0.00047  -0.00028   0.00092   0.00062   0.00148
 101        3PX        -0.00005  -0.00004  -0.00018  -0.00018  -0.00021
 102        3PY         0.00027   0.00005   0.00022   0.00007   0.00033
 103        3PZ         0.00015  -0.00004  -0.00006   0.00013  -0.00005
 104        4XX         0.00002   0.00004  -0.00010  -0.00008  -0.00011
 105        4YY        -0.00012   0.00005  -0.00009  -0.00009  -0.00021
 106        4ZZ        -0.00000   0.00004  -0.00013  -0.00008  -0.00016
 107        4XY         0.00009  -0.00000  -0.00002  -0.00002  -0.00004
 108        4XZ         0.00005   0.00000  -0.00000  -0.00002   0.00003
 109        4YZ        -0.00012  -0.00000  -0.00002   0.00001   0.00003
 110 8   O  1S         -0.00001  -0.00003  -0.00003   0.00000   0.99281
 111        2S         -0.00002  -0.00014  -0.00016  -0.00000   0.02577
 112        2PX        -0.00002   0.00001   0.00001   0.00001   0.00018
 113        2PY        -0.00002   0.00002   0.00002  -0.00000  -0.00002
 114        2PZ        -0.00001  -0.00001   0.00000   0.00000   0.00087
 115        3S          0.00059   0.00073   0.00080   0.00002   0.01165
 116        3PX        -0.00000  -0.00015  -0.00014  -0.00006  -0.00032
 117        3PY        -0.00019  -0.00014  -0.00022  -0.00000  -0.00052
 118        3PZ         0.00023   0.00019   0.00003   0.00001   0.00013
 119        4XX        -0.00005  -0.00007  -0.00009   0.00000  -0.00795
 120        4YY        -0.00011  -0.00009  -0.00008  -0.00000  -0.00797
 121        4ZZ        -0.00008  -0.00005  -0.00011   0.00000  -0.00801
 122        4XY        -0.00002   0.00001   0.00002   0.00001   0.00002
 123        4XZ         0.00004  -0.00002  -0.00001  -0.00001  -0.00001
 124        4YZ         0.00008  -0.00000   0.00001   0.00000   0.00002
 125 9   H  1S         -0.00007  -0.00003  -0.00001   0.00000   0.00028
 126        2S         -0.00009   0.00012   0.00001  -0.00001  -0.00076
                           6         7         8         9        10
                           O         O         O         O         O
     Eigenvalues --   -19.20401 -19.19420 -10.50027  -8.19915  -6.16438
   1 1   C  1S         -0.00001  -0.00001   0.99337   0.00002   0.00000
   2        2S         -0.00007  -0.00010   0.04662   0.00075  -0.00018
   3        2PX         0.00002   0.00001  -0.00067  -0.00010  -0.00003
   4        2PY         0.00004  -0.00001   0.00021  -0.00004  -0.00012
   5        2PZ         0.00002  -0.00005   0.00002   0.00000   0.00008
   6        3S          0.00036   0.00055  -0.01258  -0.00212   0.00000
   7        3PX         0.00022   0.00037  -0.00297  -0.00191   0.00004
   8        3PY        -0.00043   0.00045   0.00013   0.00074  -0.00145
   9        3PZ        -0.00061   0.00050   0.00008   0.00015   0.00107
  10        4XX         0.00003   0.00004  -0.00829  -0.00066   0.00011
  11        4YY        -0.00002   0.00001  -0.00770  -0.00014   0.00011
  12        4ZZ         0.00002  -0.00003  -0.00780  -0.00017   0.00002
  13        4XY         0.00001  -0.00002   0.00001   0.00004  -0.00031
  14        4XZ         0.00002  -0.00001  -0.00004  -0.00003   0.00023
  15        4YZ         0.00000   0.00001   0.00005  -0.00001  -0.00015
  16 2   F  1S         -0.00000   0.00001  -0.00010  -0.00016  -0.00002
  17        2S          0.00000   0.00003  -0.00026  -0.00088  -0.00014
  18        2PX        -0.00003   0.00004   0.00000  -0.00020   0.00001
  19        2PY        -0.00001   0.00000  -0.00000   0.00004  -0.00012
  20        2PZ         0.00002  -0.00001   0.00002  -0.00002   0.00003
  21        3S         -0.00017  -0.00000   0.00147   0.00285   0.00061
  22        3PX         0.00006  -0.00012  -0.00001   0.00105   0.00006
  23        3PY         0.00002  -0.00003  -0.00006  -0.00017   0.00056
  24        3PZ        -0.00013   0.00008  -0.00054   0.00031  -0.00006
  25        4XX         0.00002   0.00003  -0.00017  -0.00046  -0.00004
  26        4YY        -0.00003   0.00005  -0.00002  -0.00066  -0.00004
  27        4ZZ        -0.00005   0.00007  -0.00084  -0.00063  -0.00012
  28        4XY        -0.00001   0.00000  -0.00002   0.00000   0.00012
  29        4XZ        -0.00002  -0.00001  -0.00022   0.00020  -0.00003
  30        4YZ         0.00002  -0.00002  -0.00014  -0.00005   0.00006
  31 3   F  1S          0.00001  -0.00001  -0.00009  -0.00012  -0.00005
  32        2S          0.00003  -0.00002  -0.00019  -0.00069  -0.00028
  33        2PX         0.00004  -0.00003   0.00000  -0.00021  -0.00001
  34        2PY         0.00001  -0.00001  -0.00003   0.00002  -0.00005
  35        2PZ        -0.00001   0.00000  -0.00000  -0.00001   0.00012
  36        3S          0.00004  -0.00010   0.00116   0.00207   0.00109
  37        3PX        -0.00012   0.00006  -0.00004   0.00102   0.00012
  38        3PY        -0.00009   0.00011   0.00069  -0.00020   0.00013
  39        3PZ         0.00003  -0.00000   0.00021  -0.00000  -0.00054
  40        4XX         0.00002   0.00001  -0.00009  -0.00036  -0.00013
  41        4YY         0.00007  -0.00007  -0.00077  -0.00052  -0.00025
  42        4ZZ         0.00005  -0.00005  -0.00003  -0.00056  -0.00013
  43        4XY         0.00001   0.00001   0.00019  -0.00019   0.00003
  44        4XZ        -0.00000   0.00002   0.00006  -0.00006  -0.00011
  45        4YZ        -0.00002   0.00002  -0.00034  -0.00000   0.00003
  46 4   F  1S         -0.00003  -0.00003  -0.00009  -0.00013   0.00019
  47        2S         -0.00017  -0.00015  -0.00024  -0.00074   0.00109
  48        2PX        -0.00003  -0.00002  -0.00001  -0.00018   0.00013
  49        2PY        -0.00001   0.00001   0.00002   0.00003  -0.00002
  50        2PZ        -0.00001   0.00001  -0.00002   0.00001   0.00001
  51        3S          0.00052   0.00047   0.00131   0.00243  -0.00385
  52        3PX         0.00009   0.00006  -0.00005   0.00099  -0.00086
  53        3PY         0.00008  -0.00004  -0.00047   0.00000  -0.00010
  54        3PZ         0.00005  -0.00009   0.00037  -0.00018   0.00014
  55        4XX        -0.00011  -0.00010  -0.00021  -0.00033   0.00054
  56        4YY        -0.00011  -0.00016  -0.00049  -0.00059   0.00080
  57        4ZZ        -0.00018  -0.00010  -0.00033  -0.00052   0.00077
  58        4XY        -0.00000  -0.00000  -0.00025   0.00011  -0.00004
  59        4XZ        -0.00001   0.00001   0.00021  -0.00012   0.00004
  60        4YZ         0.00000  -0.00002   0.00045   0.00002  -0.00007
  61 5   S  1S          0.00001   0.00002  -0.00001  -0.27991   0.00065
  62        2S         -0.00007  -0.00004  -0.00019   1.02297  -0.00259
  63        2PX         0.00003   0.00002  -0.00001   0.00002   0.23569
  64        2PY        -0.00005  -0.00000   0.00000   0.00157   0.75463
  65        2PZ        -0.00002   0.00000   0.00000  -0.00179  -0.59769
  66        3S          0.00086   0.00078  -0.00066   0.07249  -0.00063
  67        3PX        -0.00007  -0.00002  -0.00009   0.00031   0.00704
  68        3PY        -0.00005   0.00010  -0.00006  -0.00006   0.02366
  69        3PZ        -0.00006   0.00020   0.00001  -0.00024  -0.01851
  70        4S         -0.00316  -0.00334   0.00768  -0.00784   0.00181
  71        4PX        -0.00041  -0.00054  -0.00303   0.00165  -0.00191
  72        4PY         0.00185  -0.00123   0.00126  -0.00109  -0.00374
  73        4PZ         0.00173  -0.00201  -0.00054   0.00000   0.00291
  74        5XX        -0.00022  -0.00014  -0.00012  -0.01521  -0.00047
  75        5YY        -0.00028  -0.00018  -0.00014  -0.01466   0.00060
  76        5ZZ        -0.00025  -0.00009  -0.00008  -0.01465  -0.00014
  77        5XY         0.00004   0.00003   0.00004  -0.00009   0.00078
  78        5XZ        -0.00000   0.00003  -0.00001   0.00010  -0.00063
  79        5YZ        -0.00004   0.00002   0.00007   0.00041  -0.00175
  80 6   O  1S         -0.00027   0.99274   0.00006  -0.00009   0.00014
  81        2S          0.00007   0.02570   0.00030   0.00045  -0.00008
  82        2PX        -0.00004  -0.00039  -0.00004   0.00000  -0.00002
  83        2PY         0.00006  -0.00024   0.00003  -0.00015   0.00001
  84        2PZ        -0.00001  -0.00088  -0.00000  -0.00029   0.00013
  85        3S         -0.00038   0.01264  -0.00178  -0.00337   0.00082
  86        3PX         0.00018  -0.00027   0.00056   0.00054  -0.00052
  87        3PY        -0.00032  -0.00002  -0.00015   0.00102  -0.00098
  88        3PZ        -0.00010  -0.00060   0.00043   0.00280  -0.00102
  89        4XX         0.00006  -0.00810   0.00021   0.00028   0.00013
  90        4YY         0.00004  -0.00811   0.00013   0.00022   0.00026
  91        4ZZ         0.00008  -0.00806   0.00014   0.00021  -0.00030
  92        4XY         0.00003  -0.00001  -0.00001   0.00001   0.00028
  93        4XZ        -0.00000   0.00002  -0.00006   0.00006   0.00015
  94        4YZ        -0.00000  -0.00001   0.00005  -0.00000   0.00051
  95 7   O  1S          0.99270   0.00030   0.00005  -0.00012   0.00020
  96        2S          0.02569   0.00006   0.00025   0.00073  -0.00005
  97        2PX        -0.00038  -0.00004  -0.00003  -0.00004  -0.00002
  98        2PY         0.00091   0.00002   0.00001   0.00041  -0.00016
  99        2PZ         0.00056  -0.00005  -0.00003   0.00030  -0.00009
 100        3S          0.01311  -0.00022  -0.00151  -0.00488   0.00074
 101        3PX        -0.00025   0.00019   0.00048   0.00051  -0.00038
 102        3PY         0.00064   0.00007  -0.00045  -0.00281   0.00066
 103        3PZ         0.00022   0.00034   0.00003  -0.00188   0.00131
 104        4XX        -0.00820   0.00004   0.00018   0.00037   0.00015
 105        4YY        -0.00809   0.00007   0.00007   0.00044  -0.00047
 106        4ZZ        -0.00818   0.00003   0.00011   0.00035   0.00048
 107        4XY        -0.00005   0.00002   0.00004  -0.00011  -0.00003
 108        4XZ        -0.00002  -0.00003   0.00002  -0.00007  -0.00022
 109        4YZ         0.00007   0.00002   0.00005   0.00012   0.00021
 110 8   O  1S         -0.00005  -0.00001   0.00008   0.00002   0.00005
 111        2S         -0.00012  -0.00015   0.00037   0.00037   0.00119
 112        2PX        -0.00001  -0.00001   0.00000   0.00016   0.00007
 113        2PY         0.00004  -0.00002  -0.00003   0.00009   0.00007
 114        2PZ         0.00004  -0.00005   0.00000   0.00003   0.00008
 115        3S          0.00082   0.00095  -0.00221  -0.00193  -0.00478
 116        3PX         0.00003  -0.00001   0.00036  -0.00016   0.00106
 117        3PY        -0.00035  -0.00004   0.00053   0.00144   0.00322
 118        3PZ        -0.00016   0.00042  -0.00034  -0.00146  -0.00296
 119        4XX        -0.00008  -0.00009   0.00031   0.00031   0.00070
 120        4YY        -0.00013  -0.00011   0.00015  -0.00020  -0.00037
 121        4ZZ        -0.00012  -0.00014   0.00013   0.00007   0.00019
 122        4XY         0.00002  -0.00002  -0.00003  -0.00021  -0.00061
 123        4XZ         0.00003  -0.00003   0.00001   0.00005   0.00032
 124        4YZ        -0.00001  -0.00000  -0.00003   0.00038   0.00092
 125 9   H  1S          0.00002  -0.00005   0.00008   0.00020   0.00034
 126        2S         -0.00007   0.00009  -0.00028   0.00073   0.00065
                          11        12        13        14        15
                           O         O         O         O         O
     Eigenvalues --    -6.16259  -6.16249  -1.32988  -1.25205  -1.23951
   1 1   C  1S          0.00003  -0.00010  -0.09525   0.00953  -0.00054
   2        2S          0.00090  -0.00182   0.19477  -0.01961   0.00114
   3        2PX        -0.00007   0.00006  -0.05718   0.01500  -0.01044
   4        2PY        -0.00006  -0.00003   0.02508   0.12813  -0.05302
   5        2PZ        -0.00006  -0.00003   0.00405   0.05778   0.12324
   6        3S         -0.00269   0.00597   0.01670  -0.00523   0.00013
   7        3PX        -0.00200   0.00360   0.01794  -0.00294   0.00016
   8        3PY        -0.00174  -0.00113  -0.00280  -0.00461  -0.00013
   9        3PZ        -0.00239  -0.00153   0.00044  -0.00337  -0.00230
  10        4XX        -0.00074   0.00119  -0.00916  -0.00166   0.00213
  11        4YY        -0.00019   0.00007   0.00274   0.01636   0.00921
  12        4ZZ         0.00004   0.00016  -0.00215  -0.01392  -0.01146
  13        4XY        -0.00013  -0.00025  -0.00157  -0.01427   0.00785
  14        4XZ        -0.00026  -0.00011  -0.00095  -0.00510  -0.01539
  15        4YZ        -0.00002   0.00004   0.00271   0.01252  -0.01356
  16 2   F  1S          0.00003   0.00030  -0.10757   0.11683   0.15600
  17        2S          0.00019   0.00177   0.23500  -0.26205  -0.35135
  18        2PX        -0.00012   0.00028   0.01945  -0.01829  -0.02582
  19        2PY        -0.00007  -0.00004   0.00946   0.00392  -0.01302
  20        2PZ         0.00001   0.00007   0.05786  -0.04275  -0.04870
  21        3S         -0.00111  -0.00617   0.23364  -0.24907  -0.33153
  22        3PX         0.00043  -0.00176   0.01072  -0.01009  -0.01492
  23        3PY         0.00034   0.00016   0.00699   0.00361  -0.00776
  24        3PZ        -0.00021  -0.00086   0.03987  -0.02409  -0.02597
  25        4XX         0.00014   0.00093   0.00295  -0.00530  -0.00766
  26        4YY         0.00003   0.00118   0.00101  -0.00325  -0.00544
  27        4ZZ         0.00009   0.00119   0.01524  -0.01155  -0.01397
  28        4XY         0.00007  -0.00001   0.00088  -0.00011  -0.00085
  29        4XZ         0.00008  -0.00033   0.00599  -0.00398  -0.00516
  30        4YZ         0.00007   0.00006   0.00261   0.00014  -0.00224
  31 3   F  1S         -0.00026   0.00013  -0.14191  -0.17038   0.00812
  32        2S         -0.00154   0.00075   0.31332   0.38513  -0.01855
  33        2PX        -0.00019   0.00024   0.02230   0.02619  -0.00214
  34        2PY         0.00008  -0.00003  -0.07133  -0.05457  -0.00212
  35        2PZ        -0.00006  -0.00007  -0.02539  -0.01811   0.01263
  36        3S          0.00550  -0.00227   0.30251   0.35864  -0.01655
  37        3PX         0.00125  -0.00124   0.01111   0.01465  -0.00135
  38        3PY        -0.00085   0.00033  -0.04457  -0.02640  -0.00203
  39        3PZ         0.00019   0.00041  -0.01615  -0.00828   0.00831
  40        4XX        -0.00083   0.00038   0.00434   0.00834  -0.00053
  41        4YY        -0.00097   0.00050   0.01767   0.01459   0.00032
  42        4ZZ        -0.00103   0.00053   0.00419   0.00704  -0.00140
  43        4XY        -0.00025   0.00023  -0.00570  -0.00457   0.00019
  44        4XZ        -0.00002   0.00013  -0.00198  -0.00151   0.00048
  45        4YZ        -0.00009  -0.00008   0.00634   0.00319  -0.00156
  46 4   F  1S         -0.00010   0.00018  -0.10562   0.09961  -0.16926
  47        2S         -0.00058   0.00102   0.23033  -0.22336   0.38110
  48        2PX        -0.00015   0.00025   0.02592  -0.02030   0.03386
  49        2PY        -0.00010  -0.00005   0.04282  -0.01895   0.04228
  50        2PZ        -0.00011  -0.00009  -0.03382   0.02889  -0.02784
  51        3S          0.00189  -0.00332   0.23031  -0.21216   0.35986
  52        3PX         0.00082  -0.00140   0.01561  -0.01151   0.01950
  53        3PY         0.00058   0.00010   0.03020  -0.00951   0.02335
  54        3PZ         0.00049   0.00058  -0.02363   0.01754  -0.01420
  55        4XX        -0.00026   0.00047   0.00425  -0.00542   0.00965
  56        4YY        -0.00034   0.00082   0.00855  -0.00525   0.01146
  57        4ZZ        -0.00053   0.00068   0.00568  -0.00656   0.00840
  58        4XY         0.00019  -0.00012   0.00589  -0.00275   0.00516
  59        4XZ         0.00002   0.00022  -0.00478   0.00308  -0.00395
  60        4YZ         0.00003  -0.00001  -0.00753   0.00370  -0.00494
  61 5   S  1S         -0.00006  -0.00021   0.00485  -0.00146  -0.00014
  62        2S          0.00013   0.00094  -0.02298   0.00648   0.00071
  63        2PX        -0.43866   0.85687   0.00757  -0.00100   0.00036
  64        2PY         0.63158   0.11588  -0.00064  -0.00370   0.00097
  65        2PZ         0.62467   0.48409   0.00045  -0.00200  -0.00333
  66        3S         -0.00025  -0.00039   0.03595  -0.01327  -0.00093
  67        3PX        -0.01376   0.02696  -0.01777   0.00246  -0.00059
  68        3PY         0.02125   0.00400   0.00166   0.00768  -0.00196
  69        3PZ         0.02084   0.01607  -0.00105   0.00453   0.00721
  70        4S         -0.00217   0.00126   0.01219   0.00215  -0.00003
  71        4PX         0.00215  -0.00406  -0.00476   0.00252  -0.00163
  72        4PY        -0.00165  -0.00008   0.00343   0.01595  -0.00362
  73        4PZ        -0.00079  -0.00129   0.00017   0.00928   0.01311
  74        5XX         0.00073  -0.00075   0.00818  -0.00110   0.00073
  75        5YY        -0.00157   0.00049  -0.00188   0.00085  -0.00049
  76        5ZZ         0.00030   0.00180  -0.00211   0.00047  -0.00030
  77        5XY         0.00075   0.00048  -0.00206  -0.00249   0.00152
  78        5XZ         0.00103   0.00061   0.00048  -0.00116  -0.00300
  79        5YZ        -0.00084   0.00039   0.00093  -0.00063   0.00018
  80 6   O  1S         -0.00022  -0.00019  -0.00415   0.00087  -0.00071
  81        2S          0.00042   0.00107   0.01016   0.00042   0.00336
  82        2PX        -0.00005  -0.00019  -0.00289   0.00014  -0.00079
  83        2PY        -0.00000  -0.00008  -0.00089   0.00088  -0.00061
  84        2PZ        -0.00021  -0.00037  -0.00468   0.00059  -0.00061
  85        3S         -0.00339  -0.00652   0.00307  -0.01180  -0.00662
  86        3PX         0.00145   0.00141   0.00066   0.00011   0.00037
  87        3PY        -0.00004   0.00102  -0.00077  -0.00160   0.00165
  88        3PZ         0.00232   0.00429  -0.00083   0.00250   0.00025
  89        4XX        -0.00013   0.00077   0.00035   0.00088   0.00064
  90        4YY         0.00020   0.00055   0.00035   0.00087   0.00042
  91        4ZZ         0.00025   0.00019   0.00142   0.00060   0.00105
  92        4XY         0.00002   0.00006   0.00015  -0.00009  -0.00002
  93        4XZ        -0.00033   0.00024   0.00049  -0.00008   0.00003
  94        4YZ         0.00038  -0.00011   0.00044   0.00024   0.00003
  95 7   O  1S          0.00044   0.00011  -0.00502   0.00376   0.00079
  96        2S         -0.00145   0.00019   0.01169  -0.01081  -0.00214
  97        2PX         0.00028  -0.00003  -0.00297   0.00209   0.00029
  98        2PY        -0.00074  -0.00004   0.00522  -0.00349  -0.00112
  99        2PZ        -0.00037   0.00004   0.00280  -0.00200   0.00044
 100        3S          0.00909  -0.00047   0.00628   0.00544   0.00112
 101        3PX        -0.00177  -0.00060   0.00066   0.00015   0.00069
 102        3PY         0.00504   0.00001   0.00077  -0.00034   0.00152
 103        3PZ         0.00235  -0.00063   0.00092   0.00020  -0.00213
 104        4XX        -0.00061   0.00044   0.00016  -0.00089  -0.00022
 105        4YY        -0.00067   0.00008   0.00107  -0.00154   0.00006
 106        4ZZ        -0.00073  -0.00004   0.00048  -0.00087  -0.00032
 107        4XY         0.00020  -0.00037  -0.00045   0.00028   0.00014
 108        4XZ         0.00017  -0.00015  -0.00027   0.00007  -0.00004
 109        4YZ        -0.00029  -0.00037   0.00072  -0.00074  -0.00021
 110 8   O  1S         -0.00003   0.00015  -0.00382   0.00037   0.00168
 111        2S         -0.00013   0.00064   0.00861  -0.00053  -0.00435
 112        2PX         0.00011  -0.00003  -0.00177   0.00003   0.00049
 113        2PY         0.00011   0.00008  -0.00237   0.00081   0.00096
 114        2PZ         0.00006   0.00010   0.00264   0.00020  -0.00058
 115        3S          0.00064  -0.00275   0.00437  -0.00336   0.00152
 116        3PX        -0.00036  -0.00023   0.00012  -0.00057   0.00183
 117        3PY        -0.00109  -0.00020  -0.00015   0.00070  -0.00165
 118        3PZ        -0.00062  -0.00104   0.00070  -0.00213  -0.00058
 119        4XX        -0.00017   0.00070   0.00007   0.00017  -0.00041
 120        4YY         0.00058   0.00055   0.00054   0.00006   0.00011
 121        4ZZ        -0.00063   0.00010   0.00029  -0.00047  -0.00017
 122        4XY        -0.00011   0.00038   0.00019  -0.00009  -0.00025
 123        4XZ         0.00030  -0.00024  -0.00005  -0.00019   0.00006
 124        4YZ         0.00003   0.00030  -0.00052   0.00028   0.00017
 125 9   H  1S          0.00017   0.00026   0.00099   0.00040  -0.00054
 126        2S          0.00060   0.00101  -0.00058  -0.00242   0.00041
                          16        17        18        19        20
                           O         O         O         O         O
     Eigenvalues --    -1.18924  -1.06843  -1.03919  -0.79378  -0.68518
   1 1   C  1S         -0.00627   0.00208  -0.00047  -0.13188   0.08477
   2        2S          0.00137  -0.00238   0.00074   0.30525  -0.20935
   3        2PX         0.03541  -0.00637   0.00210   0.15613   0.22287
   4        2PY        -0.00264  -0.00175   0.00189  -0.01295  -0.03281
   5        2PZ         0.00239  -0.00172  -0.00332   0.00560  -0.00734
   6        3S          0.05212  -0.01068   0.00265   0.22805  -0.12160
   7        3PX         0.02239  -0.00456   0.00103   0.08976   0.00531
   8        3PY        -0.00035  -0.00492   0.00429  -0.01081  -0.00321
   9        3PZ         0.00130  -0.00283  -0.00433   0.00070  -0.00432
  10        4XX         0.00709  -0.00087  -0.00007   0.00640   0.01181
  11        4YY        -0.00219   0.00129   0.00025  -0.01125   0.00046
  12        4ZZ        -0.00302  -0.00021  -0.00058  -0.01184   0.00278
  13        4XY        -0.00118  -0.00101   0.00114  -0.00225   0.00089
  14        4XZ         0.00004  -0.00064  -0.00140   0.00048   0.00037
  15        4YZ         0.00009   0.00053  -0.00074   0.00002  -0.00115
  16 2   F  1S          0.01430   0.00179   0.00314   0.04859  -0.04099
  17        2S         -0.03270  -0.00584  -0.00985  -0.10701   0.08830
  18        2PX         0.00194   0.00024   0.00157   0.07836  -0.00221
  19        2PY        -0.00097  -0.00075   0.00068   0.00927  -0.03783
  20        2PZ        -0.00454   0.00004  -0.00010   0.09543  -0.20751
  21        3S         -0.03342  -0.00093  -0.00334  -0.14994   0.13356
  22        3PX         0.00043   0.00211   0.00340   0.04139   0.00383
  23        3PY        -0.00115  -0.00121   0.00033   0.00636  -0.02296
  24        3PZ        -0.00455  -0.00014  -0.00042   0.05611  -0.12532
  25        4XX        -0.00010  -0.00044  -0.00075   0.00315   0.00368
  26        4YY        -0.00128  -0.00083  -0.00174  -0.00235   0.00113
  27        4ZZ        -0.00208  -0.00117  -0.00174   0.00765  -0.01595
  28        4XY        -0.00024  -0.00057   0.00037   0.00072  -0.00031
  29        4XZ        -0.00026   0.00015   0.00017   0.00720  -0.00129
  30        4YZ        -0.00020  -0.00001  -0.00011   0.00145  -0.00360
  31 3   F  1S          0.00899  -0.00535   0.00132   0.05024  -0.04793
  32        2S         -0.01917   0.01528  -0.00407  -0.11129   0.10108
  33        2PX         0.00286  -0.00239   0.00089   0.08010   0.00060
  34        2PY         0.00282  -0.00005   0.00063  -0.10528   0.24325
  35        2PZ         0.00132  -0.00022  -0.00122  -0.03430   0.08707
  36        3S         -0.02569   0.00866  -0.00188  -0.15379   0.16441
  37        3PX         0.00027  -0.00446   0.00177   0.04157   0.00676
  38        3PY         0.00407  -0.00076   0.00074  -0.06205   0.14298
  39        3PZ         0.00153  -0.00093  -0.00103  -0.02046   0.05161
  40        4XX         0.00074   0.00069  -0.00017   0.00224   0.00307
  41        4YY        -0.00088   0.00222  -0.00071   0.00743  -0.01663
  42        4ZZ        -0.00047   0.00211  -0.00076  -0.00168  -0.00127
  43        4XY         0.00005   0.00039   0.00012  -0.00709   0.00048
  44        4XZ         0.00006  -0.00009  -0.00067  -0.00229   0.00009
  45        4YZ        -0.00021   0.00010  -0.00002   0.00396  -0.00743
  46 4   F  1S          0.01227  -0.00024  -0.00294   0.04741  -0.04413
  47        2S         -0.02649  -0.00005   0.00784  -0.10521   0.09440
  48        2PX         0.00160  -0.00048  -0.00109   0.08746  -0.03960
  49        2PY        -0.00315  -0.00028  -0.00032   0.06380  -0.17249
  50        2PZ         0.00265  -0.00057  -0.00009  -0.05449   0.13205
  51        3S         -0.03205   0.00168   0.00629  -0.14410   0.14606
  52        3PX        -0.00128   0.00051  -0.00195   0.04717  -0.01879
  53        3PY        -0.00361  -0.00063   0.00026   0.03908  -0.10427
  54        3PZ         0.00245  -0.00092  -0.00080  -0.03249   0.08007
  55        4XX         0.00038  -0.00026   0.00024   0.00427   0.00193
  56        4YY        -0.00079  -0.00014   0.00087   0.00230  -0.00959
  57        4ZZ        -0.00059  -0.00035   0.00087   0.00060  -0.00539
  58        4XY        -0.00050  -0.00034  -0.00013   0.00584  -0.00389
  59        4XZ         0.00025  -0.00046  -0.00011  -0.00494   0.00279
  60        4YZ         0.00040   0.00005   0.00003  -0.00491   0.00998
  61 5   S  1S          0.05313  -0.00350  -0.00483   0.02866   0.03043
  62        2S         -0.23760   0.01538   0.02238  -0.12405  -0.13508
  63        2PX        -0.03329   0.00477   0.00794   0.11394   0.04195
  64        2PY         0.02551   0.10664  -0.03867  -0.02720  -0.03291
  65        2PZ         0.00633   0.08968   0.08617   0.01280   0.02285
  66        3S          0.49483  -0.03179  -0.04821   0.30426   0.32672
  67        3PX         0.06279  -0.00924  -0.01814  -0.28559  -0.10533
  68        3PY        -0.05028  -0.23741   0.08483   0.06893   0.08350
  69        3PZ        -0.01560  -0.19982  -0.19228  -0.03185  -0.05784
  70        4S         -0.05924   0.01428  -0.00847   0.01745   0.14330
  71        4PX        -0.00116   0.00128   0.00136   0.01334  -0.04564
  72        4PY        -0.00702   0.02967  -0.01381   0.00042   0.02016
  73        4PZ         0.00583   0.01874   0.01722   0.00501  -0.00446
  74        5XX        -0.03416  -0.00403   0.00351   0.04499  -0.00104
  75        5YY         0.00437   0.03863   0.03133  -0.02223  -0.01061
  76        5ZZ         0.00080  -0.03812  -0.02447  -0.02554  -0.00901
  77        5XY        -0.00820  -0.03447   0.00860  -0.00402   0.00429
  78        5XZ         0.00086  -0.03380  -0.02932  -0.00043  -0.00267
  79        5YZ         0.02832   0.03260  -0.04460  -0.01707  -0.01674
  80 6   O  1S         -0.08899   0.12697   0.11364   0.05111   0.04697
  81        2S          0.18972  -0.27907  -0.25518  -0.11648  -0.10153
  82        2PX        -0.03168   0.03961   0.03559  -0.03434  -0.03654
  83        2PY        -0.02124   0.01188   0.02872   0.00423  -0.00077
  84        2PZ        -0.08462   0.09160   0.07164   0.00009  -0.04247
  85        3S          0.18389  -0.26074  -0.22743  -0.13400  -0.16059
  86        3PX        -0.01460   0.01236   0.01172  -0.01826  -0.01058
  87        3PY        -0.00560  -0.00193   0.00959  -0.00061  -0.00302
  88        3PZ        -0.03674   0.02688   0.01996  -0.00156  -0.01327
  89        4XX        -0.00288   0.00255   0.00085   0.00339   0.00381
  90        4YY        -0.00458   0.00539   0.00250   0.00025   0.00152
  91        4ZZ         0.01169  -0.00635  -0.00634   0.00053   0.00555
  92        4XY         0.00260  -0.00115  -0.00188   0.00026   0.00003
  93        4XZ         0.00788  -0.00671  -0.00524   0.00353   0.00317
  94        4YZ         0.00522  -0.00142  -0.00361  -0.00038   0.00039
  95 7   O  1S         -0.12268  -0.14524   0.01266   0.05164   0.05141
  96        2S          0.26776   0.32500  -0.02853  -0.12087  -0.11560
  97        2PX        -0.03764  -0.04193   0.00340  -0.03792  -0.03592
  98        2PY         0.10639   0.09392  -0.00030   0.00361   0.05125
  99        2PZ         0.06172   0.05286  -0.01823  -0.00611   0.00736
 100        3S          0.22848   0.27474  -0.02682  -0.12509  -0.16421
 101        3PX        -0.01323  -0.01144   0.00194  -0.02015  -0.01143
 102        3PY         0.03426   0.01567   0.00027   0.00635   0.01895
 103        3PZ         0.01765   0.00865  -0.00860   0.00052   0.00270
 104        4XX        -0.00316  -0.00176   0.00051   0.00228   0.00238
 105        4YY         0.01157   0.00525   0.00078   0.00039   0.00515
 106        4ZZ         0.00031  -0.00216  -0.00170  -0.00100   0.00047
 107        4XY        -0.00729  -0.00593  -0.00033  -0.00414  -0.00349
 108        4XZ        -0.00459  -0.00295   0.00098  -0.00196  -0.00116
 109        4YZ         0.01197   0.00559  -0.00217  -0.00024   0.00155
 110 8   O  1S         -0.06918   0.07354  -0.18204   0.03753   0.03509
 111        2S          0.14388  -0.16229   0.40324  -0.08708  -0.07531
 112        2PX        -0.00627  -0.00103   0.00189  -0.05857  -0.08302
 113        2PY        -0.03508   0.00572  -0.02666  -0.04821  -0.11849
 114        2PZ         0.04223  -0.04422   0.07334   0.00332   0.02450
 115        3S          0.16692  -0.16960   0.42666  -0.09985  -0.12614
 116        3PX        -0.00689   0.00150   0.00323  -0.03234  -0.04230
 117        3PY        -0.02401   0.00621  -0.01006  -0.02424  -0.05643
 118        3PZ         0.02904  -0.02700   0.04855  -0.00251   0.00326
 119        4XX        -0.00379   0.00149  -0.00337   0.00052   0.00127
 120        4YY         0.00360  -0.00238   0.00499  -0.00051   0.00264
 121        4ZZ         0.00214  -0.00255   0.00306  -0.00081   0.00205
 122        4XY         0.00626  -0.00477   0.01150  -0.00059  -0.00137
 123        4XZ        -0.00114  -0.00131   0.00322  -0.00537  -0.00681
 124        4YZ        -0.00639   0.00131  -0.00171  -0.00440  -0.00882
 125 9   H  1S          0.02186  -0.03437   0.07314  -0.04149  -0.06491
 126        2S          0.00605  -0.01073   0.00304  -0.01612  -0.03328
                          21        22        23        24        25
                           O         O         O         O         O
     Eigenvalues --    -0.61919  -0.61365  -0.60205  -0.55141  -0.51102
   1 1   C  1S          0.00842  -0.00183   0.01023  -0.00902  -0.00522
   2        2S         -0.01765   0.00465  -0.02309   0.02439   0.01639
   3        2PX        -0.07102  -0.07516  -0.19438   0.04525   0.01363
   4        2PY         0.31306  -0.11007  -0.13035  -0.03844  -0.01373
   5        2PZ        -0.04450  -0.32104   0.14672   0.03828  -0.00896
   6        3S         -0.02548   0.00523  -0.02143  -0.00023   0.00491
   7        3PX        -0.02189  -0.01972  -0.06444   0.02398   0.02097
   8        3PY         0.08871  -0.02542  -0.03919  -0.00457  -0.02745
   9        3PZ        -0.02035  -0.09722   0.04420   0.01332  -0.00398
  10        4XX        -0.00226   0.00090   0.00574  -0.00547  -0.00303
  11        4YY         0.00700  -0.01133  -0.00080   0.00026   0.00315
  12        4ZZ        -0.00360   0.01090  -0.00161   0.00146  -0.00129
  13        4XY        -0.01156   0.00498   0.00843   0.00828   0.01479
  14        4XZ         0.00085   0.01266  -0.01004  -0.00871   0.00826
  15        4YZ         0.00920  -0.00151  -0.00617  -0.00007   0.00269
  16 2   F  1S          0.00127   0.05613  -0.01208  -0.00379   0.00097
  17        2S         -0.00228  -0.10063   0.02216  -0.00283   0.00210
  18        2PX        -0.02895   0.14809  -0.15451   0.06771  -0.02587
  19        2PY         0.15768   0.02353  -0.08422  -0.05723  -0.07473
  20        2PZ        -0.00149   0.35989  -0.02408  -0.06497   0.06115
  21        3S         -0.00624  -0.24788   0.05304   0.03732  -0.00812
  22        3PX        -0.01871   0.08113  -0.09492   0.05205  -0.02321
  23        3PY         0.09623   0.01190  -0.05071  -0.03896  -0.05134
  24        3PZ        -0.00152   0.20257  -0.01134  -0.03554   0.04118
  25        4XX        -0.00091   0.00930  -0.00619  -0.00097  -0.00110
  26        4YY         0.00201   0.00704  -0.00269  -0.00599   0.00158
  27        4ZZ        -0.00032   0.02185   0.00124  -0.00748   0.00533
  28        4XY         0.00434   0.00046  -0.00307  -0.00018  -0.00048
  29        4XZ        -0.00256   0.00751  -0.00785   0.00316  -0.00048
  30        4YZ         0.00884   0.00078  -0.00385  -0.00319  -0.00297
  31 3   F  1S          0.04431  -0.02896  -0.00601  -0.00227  -0.00178
  32        2S         -0.07789   0.05105   0.01262   0.00013  -0.00856
  33        2PX         0.09481  -0.14066  -0.15772   0.07046   0.17488
  34        2PY        -0.26571   0.22689  -0.04250   0.02866   0.07886
  35        2PZ        -0.18627  -0.09151   0.11294   0.08072   0.02280
  36        3S         -0.19910   0.13105   0.02400   0.01849   0.03704
  37        3PX         0.04965  -0.08296  -0.10010   0.04938   0.12467
  38        3PY        -0.14762   0.12827  -0.02862   0.01382   0.04441
  39        3PZ        -0.10794  -0.05962   0.06947   0.05330   0.01104
  40        4XX         0.00677  -0.00692  -0.00480   0.00050   0.00086
  41        4YY         0.01483  -0.01361   0.00660  -0.00227  -0.00885
  42        4ZZ         0.01005   0.00031  -0.00317  -0.00423  -0.00657
  43        4XY        -0.00375   0.00848   0.00713  -0.00348  -0.00651
  44        4XZ        -0.00380  -0.00115   0.00529  -0.00043  -0.00195
  45        4YZ         0.00846   0.00528  -0.00404  -0.00365  -0.00038
  46 4   F  1S         -0.03804  -0.01190   0.03781   0.00532   0.00061
  47        2S          0.07013   0.02145  -0.06307  -0.00900   0.00215
  48        2PX        -0.20217  -0.09575   0.06173   0.06507   0.00751
  49        2PY        -0.08404  -0.12842   0.24156   0.04646  -0.04548
  50        2PZ         0.16973  -0.09947  -0.16993  -0.02440  -0.08778
  51        3S          0.16571   0.05471  -0.17581  -0.01967  -0.00796
  52        3PX        -0.11921  -0.05761   0.02506   0.03956   0.00123
  53        3PY        -0.04199  -0.07510   0.14035   0.03005  -0.03212
  54        3PZ         0.09701  -0.06366  -0.09631  -0.01582  -0.06083
  55        4XX        -0.01165  -0.00565   0.00467   0.00140   0.00034
  56        4YY        -0.00270  -0.00796   0.01575   0.00210  -0.00140
  57        4ZZ        -0.00911   0.00578   0.01111   0.00136   0.00575
  58        4XY        -0.00542  -0.00669   0.00298   0.00297  -0.00013
  59        4XZ         0.00815  -0.00169  -0.00149  -0.00207  -0.00121
  60        4YZ         0.00285  -0.00220  -0.00708  -0.00032  -0.00124
  61 5   S  1S          0.00833   0.00364   0.01920  -0.02547  -0.00110
  62        2S         -0.03465  -0.01430  -0.07987   0.10545   0.00233
  63        2PX        -0.05943  -0.03214  -0.08706   0.03169  -0.03708
  64        2PY        -0.05269  -0.01502  -0.03638  -0.08831  -0.12514
  65        2PZ         0.03926   0.03823   0.03656   0.09692  -0.07426
  66        3S          0.09912   0.04621   0.22972  -0.31315  -0.02245
  67        3PX         0.15349   0.08243   0.22470  -0.08238   0.09978
  68        3PY         0.13755   0.03855   0.09464   0.23249   0.33877
  69        3PZ        -0.10214  -0.10093  -0.09510  -0.25845   0.20558
  70        4S         -0.00238  -0.01686  -0.00052  -0.01713   0.01225
  71        4PX         0.02588   0.01782   0.04098  -0.01226   0.03814
  72        4PY         0.02159  -0.00436   0.01135   0.03757   0.09149
  73        4PZ        -0.00625  -0.01572  -0.00811  -0.05224   0.04090
  74        5XX        -0.01719  -0.00692  -0.01908   0.00223   0.01479
  75        5YY         0.00408  -0.00362  -0.00247  -0.00150   0.00619
  76        5ZZ         0.00767   0.00852   0.00655   0.02785  -0.01596
  77        5XY        -0.01158   0.01024   0.01448   0.00664   0.00953
  78        5XZ        -0.00422   0.01571  -0.01618  -0.00947   0.00361
  79        5YZ        -0.01150  -0.00892  -0.01964  -0.01156   0.00606
  80 6   O  1S          0.01161  -0.00760   0.03380  -0.08155   0.05715
  81        2S         -0.02457   0.01785  -0.07665   0.17696  -0.11689
  82        2PX         0.02364   0.03784   0.02273   0.07063  -0.06021
  83        2PY         0.01897   0.00621  -0.00660   0.13639   0.08346
  84        2PZ        -0.04360  -0.00975  -0.09384   0.20340  -0.23161
  85        3S         -0.04177   0.03256  -0.11165   0.31666  -0.26574
  86        3PX         0.01223   0.02118   0.01103   0.02632  -0.02113
  87        3PY         0.00740   0.00264  -0.00435   0.06901   0.05913
  88        3PZ        -0.02069  -0.00874  -0.04615   0.09228  -0.10610
  89        4XX        -0.00139  -0.00233  -0.00257  -0.00344   0.00391
  90        4YY        -0.00049   0.00003  -0.00111  -0.00586   0.00028
  91        4ZZ         0.00630   0.00213   0.01027  -0.01560   0.02016
  92        4XY        -0.00185  -0.00077  -0.00080  -0.00460  -0.00398
  93        4XZ        -0.00101  -0.00233  -0.00061  -0.00557   0.00558
  94        4YZ        -0.00091  -0.00060   0.00120  -0.00993  -0.00678
  95 7   O  1S          0.00991   0.01638   0.04165  -0.05963  -0.06882
  96        2S         -0.02107  -0.03751  -0.09521   0.13155   0.13963
  97        2PX         0.04914   0.00325   0.04181   0.03501   0.17577
  98        2PY         0.05881   0.04536   0.11871  -0.09459  -0.21676
  99        2PZ        -0.01905  -0.01252   0.01929  -0.22983  -0.11013
 100        3S         -0.02968  -0.05796  -0.13817   0.22401   0.32753
 101        3PX         0.02760  -0.00032   0.02193   0.01212   0.08218
 102        3PY         0.02862   0.02097   0.05705  -0.03697  -0.09370
 103        3PZ        -0.01022  -0.00738   0.00623  -0.11932  -0.03821
 104        4XX        -0.00257  -0.00047  -0.00361  -0.00035  -0.00939
 105        4YY         0.00744   0.00514   0.01157  -0.00248  -0.01535
 106        4ZZ        -0.00100  -0.00142  -0.00031  -0.01335  -0.00708
 107        4XY         0.00222  -0.00049   0.00159   0.00071   0.01285
 108        4XZ         0.00321   0.00134   0.00217   0.00626   0.00662
 109        4YZ        -0.00004   0.00068   0.00404  -0.01474  -0.00587
 110 8   O  1S          0.02538   0.01097   0.02645  -0.00306   0.04025
 111        2S         -0.05818  -0.02578  -0.05618   0.01673  -0.08904
 112        2PX        -0.07652  -0.03967  -0.05654  -0.15323   0.03534
 113        2PY        -0.16224  -0.09593  -0.22305  -0.19216   0.01696
 114        2PZ         0.03203   0.00595   0.04715  -0.04686   0.22412
 115        3S         -0.08368  -0.03329  -0.08988  -0.02117  -0.16323
 116        3PX        -0.04790  -0.02585  -0.02760  -0.09249   0.02733
 117        3PY        -0.09003  -0.05374  -0.12702  -0.10600   0.02186
 118        3PZ         0.00922   0.00172   0.01957  -0.04499   0.13893
 119        4XX        -0.00121  -0.00087  -0.00208   0.00281  -0.00127
 120        4YY         0.00156   0.00118   0.00608   0.00565  -0.00464
 121        4ZZ         0.00052  -0.00067   0.00386  -0.00235   0.01898
 122        4XY        -0.00261  -0.00104  -0.00392  -0.00114  -0.00277
 123        4XZ        -0.00618  -0.00272  -0.00453  -0.01000   0.00214
 124        4YZ        -0.01075  -0.00612  -0.01518  -0.00872  -0.00109
 125 9   H  1S         -0.07378  -0.04364  -0.08696  -0.11160   0.05885
 126        2S         -0.04114  -0.01994  -0.05210  -0.06218   0.02940
                          26        27        28        29        30
                           O         O         O         O         O
     Eigenvalues --    -0.49379  -0.49048  -0.48721  -0.46642  -0.45730
   1 1   C  1S         -0.01376   0.00234  -0.01054  -0.00166   0.00055
   2        2S          0.04173  -0.00661   0.02838   0.00165  -0.00131
   3        2PX         0.02172   0.00665   0.01519   0.03044  -0.00771
   4        2PY         0.01921   0.01905  -0.04930  -0.00187  -0.03373
   5        2PZ        -0.00548  -0.07045  -0.01162   0.01852  -0.01166
   6        3S          0.01029  -0.00170   0.02670   0.02402   0.00198
   7        3PX         0.09613  -0.02567   0.07154  -0.02116  -0.01472
   8        3PY        -0.04780  -0.01298   0.05376  -0.05694   0.08392
   9        3PZ         0.00250   0.06351   0.02685  -0.03061   0.02389
  10        4XX        -0.02356   0.00698  -0.01572   0.01038   0.00644
  11        4YY         0.01072  -0.02647  -0.01199   0.00031  -0.01531
  12        4ZZ         0.00427   0.02175   0.02248  -0.00754   0.01111
  13        4XY         0.01029  -0.00333  -0.01006  -0.00455   0.01924
  14        4XZ        -0.00194  -0.00994  -0.00709  -0.00529   0.00635
  15        4YZ         0.01562   0.02493  -0.02281  -0.00518  -0.01182
  16 2   F  1S         -0.00069   0.00449   0.00002   0.00028  -0.00017
  17        2S         -0.00383  -0.00844  -0.00604   0.00620   0.00313
  18        2PX         0.20024   0.22931   0.28706  -0.04505  -0.17193
  19        2PY        -0.18736  -0.11612   0.29362   0.01494   0.28892
  20        2PZ         0.00836   0.10456  -0.05945  -0.08331   0.13078
  21        3S          0.02580  -0.00328   0.02867  -0.03045   0.00527
  22        3PX         0.13246   0.16491   0.19699  -0.03274  -0.11336
  23        3PY        -0.12533  -0.08123   0.20361   0.01639   0.18610
  24        3PZ         0.01629   0.06923  -0.03243  -0.06448   0.08920
  25        4XX         0.00062   0.00752   0.00314   0.00408  -0.00343
  26        4YY        -0.00470  -0.00557  -0.00163   0.00470   0.00039
  27        4ZZ        -0.00056   0.00243  -0.00680  -0.00142   0.00688
  28        4XY        -0.00059  -0.00070   0.00452  -0.00114   0.00435
  29        4XZ         0.00775   0.00963   0.01024  -0.00215  -0.00409
  30        4YZ        -0.00666  -0.00351   0.01101   0.00216   0.00758
  31 3   F  1S         -0.00093   0.00012  -0.00236  -0.00093   0.00387
  32        2S         -0.00685   0.00143   0.00424  -0.00866  -0.00923
  33        2PX         0.37010  -0.14306  -0.14181  -0.13083   0.30574
  34        2PY        -0.03455  -0.15382   0.08110  -0.00773   0.28565
  35        2PZ         0.12723   0.40094  -0.01551  -0.10996   0.12968
  36        3S          0.04588  -0.00982  -0.00073   0.03358  -0.04380
  37        3PX         0.24864  -0.09772  -0.10857  -0.08504   0.20080
  38        3PY        -0.03633  -0.10272   0.05152  -0.01120   0.19840
  39        3PZ         0.08265   0.27445  -0.01402  -0.07539   0.09023
  40        4XX         0.00172  -0.00164  -0.00567  -0.00641   0.00906
  41        4YY        -0.00184   0.01026  -0.00089  -0.00410  -0.01165
  42        4ZZ        -0.00832  -0.00706   0.00460  -0.00259   0.00131
  43        4XY        -0.01343   0.00353   0.00602   0.00343  -0.00541
  44        4XZ        -0.00336   0.00554   0.00115  -0.00002  -0.00167
  45        4YZ        -0.00342  -0.01214  -0.00034   0.00343  -0.00742
  46 4   F  1S         -0.00232  -0.00389   0.00117   0.00158  -0.00034
  47        2S         -0.00062   0.01143  -0.00721   0.01063   0.00286
  48        2PX         0.08094  -0.28997   0.31348  -0.03418  -0.16304
  49        2PY        -0.09437   0.11638   0.15341   0.01967   0.31475
  50        2PZ        -0.03691   0.20433   0.24693  -0.02855   0.05729
  51        3S          0.02611  -0.01117   0.02224  -0.04153   0.00958
  52        3PX         0.04928  -0.20476   0.21703  -0.02742  -0.10672
  53        3PY        -0.05467   0.07911   0.11026   0.01106   0.20834
  54        3PZ        -0.03118   0.14227   0.16512  -0.00628   0.03242
  55        4XX        -0.00265  -0.00804   0.00724   0.00533  -0.00492
  56        4YY        -0.00462   0.01114   0.00338   0.00757   0.00942
  57        4ZZ         0.00092  -0.00263  -0.01385   0.00432  -0.00107
  58        4XY         0.00162  -0.00560   0.01061  -0.00098   0.00251
  59        4XZ        -0.00289   0.00902  -0.00308   0.00048   0.00501
  60        4YZ         0.00066   0.00354   0.00239  -0.00027  -0.00519
  61 5   S  1S         -0.00366   0.00267  -0.00355   0.00497   0.00125
  62        2S          0.01364  -0.01184   0.01494  -0.02090  -0.00529
  63        2PX        -0.10123   0.02066  -0.05902   0.02932   0.01005
  64        2PY         0.04807  -0.01337  -0.01797  -0.01477   0.01675
  65        2PZ         0.04916  -0.00911  -0.00767   0.09216   0.01839
  66        3S         -0.04607   0.02934  -0.04170   0.05816   0.01533
  67        3PX         0.27868  -0.05793   0.16298  -0.08436  -0.02971
  68        3PY        -0.13276   0.03691   0.04580   0.03785  -0.04878
  69        3PZ        -0.13423   0.02227   0.02006  -0.25214  -0.05123
  70        4S         -0.03045   0.01598  -0.02907   0.00953   0.00701
  71        4PX         0.09613  -0.01508   0.05463  -0.00277  -0.00785
  72        4PY         0.02827   0.02443  -0.05914   0.09324   0.06997
  73        4PZ        -0.00801  -0.06156  -0.02238  -0.00045   0.03596
  74        5XX         0.02113  -0.00248   0.02039   0.01259  -0.00586
  75        5YY        -0.00930   0.00033  -0.01381   0.03096   0.01194
  76        5ZZ        -0.02047   0.00221  -0.00676  -0.04170  -0.00778
  77        5XY        -0.01454   0.00400   0.00538   0.02696  -0.01686
  78        5XZ        -0.00611   0.01217   0.00118  -0.00794  -0.00976
  79        5YZ         0.00725   0.01182  -0.00697   0.05929   0.01106
  80 6   O  1S         -0.01293   0.00637   0.01036  -0.02808  -0.00716
  81        2S          0.03031  -0.02609  -0.02745   0.05583   0.02085
  82        2PX         0.16658  -0.03636   0.05822   0.10713  -0.00457
  83        2PY        -0.01850   0.02472  -0.00835   0.23474   0.02875
  84        2PZ         0.01671  -0.03103  -0.07526   0.10972   0.06376
  85        3S          0.03795   0.01580  -0.02614   0.12209   0.00487
  86        3PX         0.09543  -0.02663   0.03505   0.06577  -0.00424
  87        3PY        -0.01529   0.01028   0.00481   0.14771   0.00983
  88        3PZ         0.00766  -0.02112  -0.04342   0.03939   0.03967
  89        4XX        -0.00704  -0.00289  -0.00509  -0.00557   0.00323
  90        4YY         0.00165  -0.00529  -0.00251  -0.00555   0.00245
  91        4ZZ         0.00364  -0.00421   0.00576  -0.00479  -0.00225
  92        4XY        -0.00163  -0.00013  -0.00112  -0.00587  -0.00069
  93        4XZ        -0.01160   0.00304  -0.00359  -0.00718   0.00006
  94        4YZ         0.00332  -0.00180  -0.00035  -0.01577  -0.00079
  95 7   O  1S          0.04110  -0.00607  -0.00474   0.01741   0.00752
  96        2S         -0.08987   0.01328   0.02390  -0.04474  -0.02419
  97        2PX         0.07282  -0.02823   0.11581  -0.14440  -0.02091
  98        2PY         0.21708  -0.03056  -0.00166   0.15564   0.07357
  99        2PZ         0.09433  -0.02860  -0.00675  -0.06484   0.04099
 100        3S         -0.17328   0.02300  -0.02965  -0.03595   0.00611
 101        3PX         0.04491  -0.02170   0.07250  -0.09733  -0.01019
 102        3PY         0.10177  -0.01966  -0.00252   0.08067   0.04152
 103        3PZ         0.04152  -0.00533  -0.00971  -0.04386   0.02583
 104        4XX        -0.00500   0.00182   0.00020   0.00321  -0.00401
 105        4YY         0.01463  -0.00345   0.00816   0.00628  -0.00002
 106        4ZZ         0.00159  -0.00073   0.00538  -0.01326  -0.00276
 107        4XY         0.00337  -0.00190   0.00787  -0.01059  -0.00193
 108        4XZ         0.00344  -0.00046   0.00500  -0.00136  -0.00115
 109        4YZ         0.00828  -0.00106   0.00125  -0.00292   0.00235
 110 8   O  1S          0.01070   0.00923   0.01043   0.06056   0.00313
 111        2S         -0.01957  -0.01058  -0.02853  -0.13097  -0.00521
 112        2PX         0.13076   0.02104   0.06284   0.15568  -0.02158
 113        2PY        -0.02727   0.04614  -0.03320   0.10685   0.04431
 114        2PZ         0.01008   0.04119   0.04728   0.30820   0.00765
 115        3S         -0.06427  -0.07000  -0.02452  -0.26744  -0.02515
 116        3PX         0.08500   0.01953   0.03696   0.11058  -0.01629
 117        3PY        -0.01125   0.03808  -0.02381   0.07333   0.03056
 118        3PZ        -0.00059   0.02583   0.03301   0.19948  -0.00266
 119        4XX         0.00164   0.00398  -0.00235   0.00133   0.00149
 120        4YY         0.00397   0.00211  -0.00231  -0.00124   0.00046
 121        4ZZ         0.00134   0.00841   0.00223   0.02648   0.00037
 122        4XY        -0.00380   0.00106  -0.00238   0.00035   0.00071
 123        4XZ         0.00859   0.00197   0.00458   0.01142  -0.00155
 124        4YZ        -0.00048   0.00230  -0.00252   0.00562   0.00292
 125 9   H  1S          0.03077   0.03290   0.01456   0.16198   0.01276
 126        2S          0.01868   0.01982   0.02030   0.12991   0.00522
                          31        32        33        34        35
                           O         O         O         O         O
     Eigenvalues --    -0.45156  -0.43468  -0.40208  -0.38143  -0.37062
   1 1   C  1S          0.00039  -0.00015   0.00431  -0.04253  -0.00262
   2        2S          0.00002   0.00077  -0.01016   0.07578   0.00855
   3        2PX        -0.00566   0.00144  -0.02382   0.22419   0.01810
   4        2PY        -0.01331  -0.00221   0.00178  -0.01992  -0.00077
   5        2PZ         0.03314   0.00703  -0.00178   0.00823   0.00152
   6        3S         -0.00466  -0.00054  -0.01882   0.33361  -0.00071
   7        3PX         0.00702   0.00057   0.00030   0.09064  -0.00185
   8        3PY         0.03712   0.00735   0.02022   0.01865   0.04661
   9        3PZ        -0.06983  -0.02460  -0.08584   0.01625   0.02053
  10        4XX         0.00196   0.00067  -0.00283   0.02491   0.00293
  11        4YY         0.00625   0.00195   0.00043  -0.01215  -0.00166
  12        4ZZ        -0.00813  -0.00241   0.00245  -0.01296  -0.00003
  13        4XY         0.00943   0.00103   0.00197  -0.00382   0.00434
  14        4XZ        -0.02264  -0.00240  -0.00281   0.00269   0.00166
  15        4YZ        -0.00679  -0.00288   0.00090  -0.00017  -0.00009
  16 2   F  1S          0.00156   0.00116   0.00169   0.00266  -0.00092
  17        2S         -0.00519  -0.00190   0.01462   0.00081  -0.00251
  18        2PX         0.32673   0.07304   0.02459  -0.12779   0.01398
  19        2PY        -0.04757   0.41567  -0.02952   0.00177  -0.04578
  20        2PZ        -0.29564  -0.12552  -0.00063  -0.03720   0.00115
  21        3S         -0.02231  -0.01221  -0.05613  -0.03869   0.01834
  22        3PX         0.21683   0.04648   0.01190  -0.09970   0.01045
  23        3PY        -0.03957   0.27881  -0.02608  -0.00281  -0.03638
  24        3PZ        -0.20210  -0.08653  -0.01213  -0.03634   0.00546
  25        4XX         0.00922   0.00241   0.00787   0.00346  -0.00163
  26        4YY         0.00117   0.00351   0.00716   0.00270  -0.00224
  27        4ZZ        -0.01343  -0.00538   0.00730   0.00071  -0.00145
  28        4XY         0.00152   0.00762   0.00011  -0.00033   0.00036
  29        4XZ         0.00556  -0.00029  -0.00032  -0.00251   0.00057
  30        4YZ        -0.00450   0.01018  -0.00193  -0.00115  -0.00264
  31 3   F  1S          0.00023  -0.00012  -0.00071   0.00506   0.00401
  32        2S          0.00095   0.00002  -0.00655   0.00776  -0.00066
  33        2PX         0.02900  -0.02731  -0.01313  -0.14497  -0.09565
  34        2PY         0.09659  -0.11488  -0.02399   0.04153  -0.00825
  35        2PZ        -0.24452   0.29859   0.02762  -0.00979  -0.00030
  36        3S         -0.00530   0.00122   0.02127  -0.08322  -0.04785
  37        3PX         0.01826  -0.01813  -0.00452  -0.11451  -0.06809
  38        3PY         0.06184  -0.07800  -0.02350   0.04733   0.00373
  39        3PZ        -0.15257   0.20193   0.02866  -0.00057   0.00154
  40        4XX         0.00144  -0.00081  -0.00359   0.00884   0.00339
  41        4YY        -0.00263   0.00523  -0.00104   0.00543   0.00329
  42        4ZZ         0.00283  -0.00472  -0.00600   0.00804   0.00320
  43        4XY         0.00160  -0.00136   0.00072   0.00267   0.00278
  44        4XZ        -0.00554   0.00550  -0.00065   0.00114   0.00067
  45        4YZ         0.00381  -0.00689  -0.00261  -0.00046   0.00002
  46 4   F  1S         -0.00195  -0.00094  -0.00201   0.00356  -0.00107
  47        2S          0.00413   0.00208  -0.01255  -0.00400  -0.00165
  48        2PX        -0.27455  -0.03812   0.03424  -0.18720   0.03004
  49        2PY         0.25021  -0.23456   0.00400  -0.00243  -0.03462
  50        2PZ        -0.23424  -0.37693   0.01180  -0.00924  -0.01714
  51        3S          0.03103   0.00945   0.05589  -0.04003   0.01738
  52        3PX        -0.18103  -0.02326   0.03078  -0.14016   0.02229
  53        3PY         0.17676  -0.15616   0.01580  -0.01235  -0.02570
  54        3PZ        -0.15877  -0.25406   0.00647  -0.00210  -0.01896
  55        4XX        -0.01071  -0.00117  -0.00665   0.00094  -0.00109
  56        4YY         0.00821  -0.00752  -0.00533  -0.00008  -0.00395
  57        4ZZ         0.00367   0.00908  -0.00870   0.00200   0.00020
  58        4XY        -0.00175  -0.00559   0.00110  -0.00336   0.00038
  59        4XZ         0.00019  -0.00722  -0.00073   0.00248  -0.00082
  60        4YZ        -0.00981  -0.00379   0.00070   0.00032   0.00017
  61 5   S  1S          0.00044   0.00017  -0.00258   0.00188   0.00075
  62        2S         -0.00232  -0.00081   0.01023  -0.00293  -0.00369
  63        2PX        -0.00588   0.00054  -0.00821   0.03775  -0.00966
  64        2PY         0.00406  -0.00022   0.00782  -0.00737  -0.00832
  65        2PZ        -0.02009  -0.00018   0.01317   0.00841   0.00622
  66        3S          0.00467   0.00181  -0.03380   0.03090   0.01003
  67        3PX         0.01569  -0.00161   0.02288  -0.12162   0.02583
  68        3PY        -0.01211   0.00004  -0.01974   0.02194   0.02254
  69        3PZ         0.05780   0.00075  -0.03838  -0.02566  -0.01777
  70        4S          0.00158   0.00401   0.00202   0.00275   0.00458
  71        4PX         0.00248  -0.00117   0.00050   0.16880  -0.02172
  72        4PY         0.00608   0.00189  -0.02372  -0.07223   0.12480
  73        4PZ        -0.06417  -0.00509   0.13789   0.04032   0.01576
  74        5XX        -0.00226   0.00069  -0.00872   0.11632   0.00091
  75        5YY        -0.00524   0.00187   0.10079  -0.04869  -0.00785
  76        5ZZ         0.00480  -0.00271  -0.09207  -0.04624   0.00090
  77        5XY        -0.00694  -0.00009  -0.01561  -0.04039  -0.09628
  78        5XZ         0.01989   0.00227   0.03005  -0.03589  -0.04463
  79        5YZ        -0.00101   0.00184  -0.07615  -0.08049   0.04663
  80 6   O  1S          0.00651   0.00003  -0.01056  -0.00874   0.00026
  81        2S         -0.02071  -0.00097   0.03203   0.02070   0.00243
  82        2PX        -0.00131   0.00531   0.20471   0.12870  -0.17208
  83        2PY        -0.04136   0.00814  -0.02059  -0.15818   0.12838
  84        2PZ        -0.06268  -0.00582   0.11566   0.20318   0.06790
  85        3S          0.00282   0.00255  -0.01481   0.00390  -0.01921
  86        3PX        -0.00071   0.00364   0.15197   0.06688  -0.12318
  87        3PY        -0.03339   0.00738  -0.00803  -0.10900   0.07159
  88        3PZ        -0.03673  -0.00494   0.06143   0.13233   0.05235
  89        4XX        -0.00383  -0.00070  -0.00418   0.00359   0.00992
  90        4YY        -0.00181  -0.00055   0.00951   0.00697  -0.00101
  91        4ZZ         0.00053   0.00030   0.00515  -0.00760  -0.00356
  92        4XY         0.00069  -0.00060  -0.00211   0.00368  -0.00322
  93        4XZ         0.00082  -0.00008  -0.01013  -0.00690   0.01059
  94        4YZ         0.00334  -0.00051   0.00180   0.00941  -0.00616
  95 7   O  1S         -0.00073   0.00015  -0.00077  -0.00377  -0.00081
  96        2S          0.00395   0.00129  -0.00264   0.01452   0.00052
  97        2PX         0.00574  -0.00226  -0.01607   0.37015   0.35062
  98        2PY        -0.02301  -0.00220  -0.19470  -0.07123   0.29224
  99        2PZ         0.01322   0.00551   0.36012   0.05550   0.01745
 100        3S         -0.00975  -0.00458   0.02369  -0.02482   0.04137
 101        3PX         0.00215   0.00012  -0.01654   0.24257   0.25606
 102        3PY        -0.01977  -0.00402  -0.13304  -0.03730   0.18971
 103        3PZ         0.01817   0.00618   0.24146   0.03295   0.01150
 104        4XX         0.00084   0.00054  -0.00100  -0.00636  -0.01977
 105        4YY        -0.00180   0.00012  -0.02103   0.00553   0.01773
 106        4ZZ         0.00328   0.00105   0.01843   0.00963  -0.00533
 107        4XY         0.00022   0.00018   0.00237   0.01891   0.01711
 108        4XZ         0.00034  -0.00034  -0.00829   0.00839   0.01488
 109        4YZ         0.00149   0.00024   0.01455   0.00409   0.00648
 110 8   O  1S         -0.00306   0.00159   0.00142   0.00934   0.00365
 111        2S          0.01128  -0.00277  -0.01217  -0.02243  -0.00586
 112        2PX        -0.03415  -0.00008  -0.31829   0.22663  -0.27198
 113        2PY         0.04092   0.00965   0.03270  -0.11089   0.27768
 114        2PZ        -0.03811   0.00472   0.24519   0.03064  -0.02903
 115        3S         -0.00985  -0.00993   0.05187  -0.02482  -0.05039
 116        3PX        -0.02703  -0.00057  -0.24223   0.15083  -0.19485
 117        3PY         0.03852   0.00526   0.02055  -0.08111   0.20146
 118        3PZ        -0.02482   0.00021   0.18215   0.01324  -0.03654
 119        4XX         0.00318   0.00052  -0.00558   0.00332   0.00256
 120        4YY        -0.00007  -0.00008  -0.01277   0.00238  -0.00068
 121        4ZZ        -0.00039   0.00077   0.01199  -0.00302  -0.00001
 122        4XY         0.00087   0.00042   0.00486  -0.00258   0.00379
 123        4XZ        -0.00160   0.00054  -0.01541   0.00990  -0.01397
 124        4YZ         0.00223   0.00043  -0.00375  -0.00412   0.01390
 125 9   H  1S         -0.00509   0.00566  -0.02151   0.03452   0.01475
 126        2S         -0.00505   0.00480  -0.01853   0.01744   0.00469
                          36        37        38        39        40
                           O         O         V         V         V
     Eigenvalues --    -0.35965  -0.34278  -0.04785  -0.02182   0.01337
   1 1   C  1S         -0.02726  -0.01114   0.04357   0.07781  -0.08502
   2        2S          0.04896   0.02186  -0.10124  -0.17629   0.20203
   3        2PX         0.13577   0.05323  -0.13307  -0.27845   0.19440
   4        2PY        -0.01408  -0.00586   0.08972  -0.14519  -0.26933
   5        2PZ         0.00373   0.00379  -0.12613   0.13487  -0.10504
   6        3S          0.20727   0.07520  -0.29981  -0.57831   0.56105
   7        3PX         0.05921   0.01963  -0.09445  -0.27679   0.13245
   8        3PY        -0.01225  -0.03455   0.20067  -0.21306  -0.32410
   9        3PZ        -0.04271   0.01541  -0.17649   0.18845  -0.13435
  10        4XX         0.01342   0.00433   0.00564   0.00024  -0.01784
  11        4YY        -0.00645  -0.00299   0.00451   0.00913   0.01056
  12        4ZZ        -0.00768  -0.00207  -0.00159   0.00771  -0.01276
  13        4XY        -0.00298  -0.00069   0.01016  -0.02661  -0.02867
  14        4XZ        -0.00346   0.00291  -0.01997   0.02022  -0.01416
  15        4YZ         0.00037  -0.00040  -0.00126   0.00583   0.00656
  16 2   F  1S          0.00560   0.00026   0.00817  -0.01980   0.02818
  17        2S          0.00085   0.00292  -0.01523   0.03225  -0.05953
  18        2PX        -0.14747  -0.00385  -0.03452   0.12607  -0.13559
  19        2PY         0.00456  -0.00445  -0.03965   0.06767   0.05785
  20        2PZ        -0.01046  -0.00735  -0.01194   0.07935  -0.13179
  21        3S         -0.07251  -0.00822  -0.07024   0.17383  -0.22151
  22        3PX        -0.11268  -0.00629  -0.02671   0.12486  -0.11889
[...]
 124        4YZ        -0.00000  -0.00010   0.00007   0.00000  -0.00000
 125 9   H  1S         -0.00000   0.00007  -0.00001  -0.00000   0.00000
 126        2S         -0.00012   0.00117  -0.00014   0.00000   0.00003
                         106       107       108       109       110
 106        4ZZ         0.00235
 107        4XY         0.00000   0.00246
 108        4XZ        -0.00000  -0.00000   0.00121
 109        4YZ        -0.00000   0.00000  -0.00000   0.00189
 110 8   O  1S         -0.00000  -0.00000  -0.00000   0.00000   2.07821
 111        2S          0.00000  -0.00000   0.00000  -0.00000  -0.04301
 112        2PX        -0.00000   0.00000   0.00000  -0.00000   0.00000
 113        2PY         0.00000   0.00000   0.00000   0.00000   0.00000
 114        2PZ         0.00000  -0.00000  -0.00000   0.00000   0.00000
 115        3S          0.00012  -0.00000   0.00000  -0.00002  -0.04295
 116        3PX         0.00000   0.00000   0.00000  -0.00000   0.00000
 117        3PY         0.00019   0.00000   0.00000   0.00001   0.00000
 118        3PZ        -0.00000  -0.00000  -0.00000   0.00001   0.00000
 119        4XX        -0.00000  -0.00000   0.00000   0.00000  -0.00046
 120        4YY        -0.00000  -0.00000  -0.00000   0.00000  -0.00062
 121        4ZZ        -0.00000  -0.00000   0.00000  -0.00000  -0.00041
 122        4XY        -0.00000   0.00000  -0.00000  -0.00000  -0.00000
 123        4XZ        -0.00000  -0.00000  -0.00000   0.00000  -0.00000
 124        4YZ        -0.00000  -0.00000  -0.00000   0.00000  -0.00000
 125 9   H  1S         -0.00000  -0.00000   0.00000  -0.00000  -0.00030
 126        2S         -0.00001  -0.00000   0.00000  -0.00000   0.00040
                         111       112       113       114       115
 111        2S          0.52014
 112        2PX         0.00000   0.70919
 113        2PY         0.00000  -0.00000   0.60050
 114        2PZ         0.00000  -0.00000  -0.00000   0.66776
 115        3S          0.46766   0.00000   0.00000   0.00000   0.79844
 116        3PX         0.00000   0.25147  -0.00000  -0.00000   0.00000
 117        3PY         0.00000  -0.00000   0.19550  -0.00000   0.00000
 118        3PZ         0.00000  -0.00000  -0.00000   0.22746   0.00000
 119        4XX        -0.00230   0.00000   0.00000   0.00000  -0.00507
 120        4YY         0.00319   0.00000   0.00000   0.00000   0.00285
 121        4ZZ        -0.00487   0.00000   0.00000   0.00000  -0.01227
 122        4XY         0.00000   0.00000   0.00000   0.00000   0.00000
 123        4XZ         0.00000   0.00000   0.00000   0.00000  -0.00000
 124        4YZ        -0.00000   0.00000   0.00000   0.00000   0.00000
 125 9   H  1S          0.00635   0.01386   0.01931   0.01636   0.00524
 126        2S         -0.00619   0.00726   0.01040   0.00813  -0.03108
                         116       117       118       119       120
 116        3PX         0.35761
 117        3PY        -0.00000   0.25938
 118        3PZ        -0.00000  -0.00000   0.31166
 119        4XX         0.00000   0.00000   0.00000   0.00052
 120        4YY         0.00000   0.00000   0.00000   0.00009   0.00082
 121        4ZZ         0.00000   0.00000   0.00000  -0.00006  -0.00011
 122        4XY         0.00000   0.00000   0.00000  -0.00000  -0.00000
 123        4XZ         0.00000   0.00000   0.00000   0.00000   0.00000
 124        4YZ         0.00000   0.00000   0.00000  -0.00000   0.00000
 125 9   H  1S          0.02615   0.03416   0.03387  -0.00008  -0.00045
 126        2S          0.01607   0.02199   0.01931   0.00018  -0.00057
                         121       122       123       124       125
 121        4ZZ         0.00306
 122        4XY         0.00000   0.00066
 123        4XZ         0.00000   0.00000   0.00213
 124        4YZ        -0.00000   0.00000   0.00000   0.00200
 125 9   H  1S          0.00235   0.00069   0.00177   0.00187   0.15723
 126        2S          0.00293   0.00006   0.00031   0.00034   0.06170
                         126
 126        2S          0.06355
     Gross orbital populations:
                           1
   1 1   C  1S          1.99219
   2        2S          0.71972
   3        2PX         0.66657
   4        2PY         0.54336
   5        2PZ         0.53816
   6        3S          0.36530
   7        3PX         0.18619
   8        3PY         0.12450
   9        3PZ         0.13214
  10        4XX         0.01540
  11        4YY         0.00768
  12        4ZZ         0.00541
  13        4XY         0.02280
  14        4XZ         0.02151
  15        4YZ         0.03170
  16 2   F  1S          1.99333
  17        2S          0.95551
  18        2PX         1.13573
  19        2PY         1.18773
  20        2PZ         0.96387
  21        3S          0.97734
  22        3PX         0.69419
  23        3PY         0.71283
  24        3PZ         0.56684
  25        4XX         0.01061
  26        4YY         0.00657
  27        4ZZ         0.02949
  28        4XY         0.00076
  29        4XZ         0.00506
  30        4YZ         0.00312
  31 3   F  1S          1.99331
  32        2S          0.95602
  33        2PX         1.14842
  34        2PY         0.98090
  35        2PZ         1.16557
  36        3S          0.96971
  37        3PX         0.69619
  38        3PY         0.56735
  39        3PZ         0.69251
  40        4XX         0.01024
  41        4YY         0.02816
  42        4ZZ         0.00904
  43        4XY         0.00467
  44        4XZ         0.00111
  45        4YZ         0.00432
  46 4   F  1S          1.99333
  47        2S          0.95555
  48        2PX         1.10463
  49        2PY         1.07102
  50        2PZ         1.11072
  51        3S          0.97819
  52        3PX         0.67769
  53        3PY         0.63883
  54        3PZ         0.66343
  55        4XX         0.01312
  56        4YY         0.01747
  57        4ZZ         0.01346
  58        4XY         0.00379
  59        4XZ         0.00291
  60        4YZ         0.00447
  61 5   S  1S          1.99861
  62        2S          1.98809
  63        2PX         1.98869
  64        2PY         1.98858
  65        2PZ         1.98874
  66        3S          1.34511
  67        3PX         0.90756
  68        3PY         0.83862
  69        3PZ         0.85015
  70        4S         -0.05407
  71        4PX         0.16496
  72        4PY         0.14919
  73        4PZ         0.12136
  74        5XX         0.07437
  75        5YY         0.06662
  76        5ZZ         0.06833
  77        5XY         0.08741
  78        5XZ         0.09654
  79        5YZ         0.16497
  80 6   O  1S          1.99268
  81        2S          0.93017
  82        2PX         0.95696
  83        2PY         1.00538
  84        2PZ         0.88426
  85        3S          1.00327
  86        3PX         0.61905
  87        3PY         0.64697
  88        3PZ         0.43489
  89        4XX        -0.00601
  90        4YY        -0.00910
  91        4ZZ         0.01060
  92        4XY         0.00208
  93        4XZ         0.00895
  94        4YZ         0.00779
  95 7   O  1S          1.99260
  96        2S          0.93645
  97        2PX         0.97701
  98        2PY         0.92270
  99        2PZ         0.97216
 100        3S          0.95458
 101        3PX         0.61059
 102        3PY         0.44245
 103        3PZ         0.56508
 104        4XX        -0.00434
 105        4YY         0.00993
 106        4ZZ        -0.00154
 107        4XY         0.00845
 108        4XZ         0.00398
 109        4YZ         0.00884
 110 8   O  1S          1.99267
 111        2S          0.91907
 112        2PX         1.00116
 113        2PY         0.87197
 114        2PZ         0.95367
 115        3S          1.02029
 116        3PX         0.68568
 117        3PY         0.54296
 118        3PZ         0.61954
 119        4XX        -0.00551
 120        4YY         0.00981
 121        4ZZ        -0.00287
 122        4XY         0.00221
 123        4XZ         0.00575
 124        4YZ         0.00932
 125 9   H  1S          0.37992
 126        2S          0.18196
          Condensed to atoms (all electrons):
               1          2          3          4          5          6
     1  C    4.742567   0.206787   0.211926   0.217822   0.085051  -0.030888
     2  F    0.206787   9.091983  -0.031840  -0.033653   0.010036   0.000204
     3  F    0.211926  -0.031840   9.070232  -0.032643   0.010493  -0.000392
     4  F    0.217822  -0.033653  -0.032643   9.090659   0.006178  -0.000031
     5  S    0.085051   0.010036   0.010493   0.006178  13.638393   0.437236
     6  O   -0.030888   0.000204  -0.000392  -0.000031   0.437236   8.176975
     7  O   -0.038413  -0.000244   0.000225   0.000073   0.485176  -0.044742
     8  O   -0.023248  -0.000300  -0.000256   0.000196   0.159760  -0.054038
     9  H    0.001022  -0.000001  -0.000234  -0.000005   0.001491   0.003608
               7          8          9
     1  C   -0.038413  -0.023248   0.001022
     2  F   -0.000244  -0.000300  -0.000001
     3  F    0.000225  -0.000256  -0.000234
     4  F    0.000073   0.000196  -0.000005
     5  S    0.485176   0.159760   0.001491
     6  O   -0.044742  -0.054038   0.003608
     7  O    8.047076  -0.051336   0.001125
     8  O   -0.051336   8.384248   0.210699
     9  H    0.001125   0.210699   0.344183
 Mulliken charges:
               1
     1  C    0.627374
     2  F   -0.242971
     3  F   -0.227511
     4  F   -0.248596
     5  S    1.166187
     6  O   -0.487932
     7  O   -0.398939
     8  O   -0.625724
     9  H    0.438113
 Sum of Mulliken charges =  -0.00000
 Mulliken charges with hydrogens summed into heavy atoms:
               1
     1  C    0.627374
     2  F   -0.242971
     3  F   -0.227511
     4  F   -0.248596
     5  S    1.166187
     6  O   -0.487932
     7  O   -0.398939
     8  O   -0.187611
 Electronic spatial extent (au):  <R**2>=            904.9272
 Charge=             -0.0000 electrons
 Dipole moment (field-independent basis, Debye):
    X=              0.0459    Y=              2.3161    Z=              0.0464  Tot=              2.3170
 Quadrupole moment (field-independent basis, Debye-Ang):
   XX=            -47.9357   YY=            -46.8203   ZZ=            -53.8810
   XY=              5.5291   XZ=             -0.5481   YZ=             -0.4659
 Traceless Quadrupole moment (field-independent basis, Debye-Ang):
   XX=              1.6100   YY=              2.7254   ZZ=             -4.3353
   XY=              5.5291   XZ=             -0.5481   YZ=             -0.4659
 Octapole moment (field-independent basis, Debye-Ang**2):
  XXX=             -9.8118  YYY=             13.7890  ZZZ=             -2.7545  XYY=              2.2959
  XXY=             13.2512  XXZ=             -1.5326  XZZ=            -11.8781  YZZ=             -1.1486
  YYZ=              2.0768  XYZ=             -1.0496
 Hexadecapole moment (field-independent basis, Debye-Ang**3):
 XXXX=           -477.7343 YYYY=           -197.4637 ZZZZ=           -213.1904 XXXY=             25.4605
 XXXZ=             -3.0538 YYYX=             27.0579 YYYZ=             -1.8208 ZZZX=             -4.0997
 ZZZY=              1.4130 XXYY=           -100.5346 XXZZ=           -128.0051 YYZZ=            -72.6238
 XXYZ=             -1.4541 YYXZ=              1.8387 ZZXY=             -1.8991
 N-N= 5.533981374268D+02 E-N=-3.385498810475D+03  KE= 9.558622894848D+02
 Orbital energies and kinetic energies (alpha):
                                 1                 2
   1         O               -89.173291        120.981422
   2         O               -24.778176         37.083359
   3         O               -24.765766         37.083773
   4         O               -24.765622         37.083835
   5         O               -19.242400         29.031337
   6         O               -19.204014         29.026221
   7         O               -19.194199         29.028294
   8         O               -10.500267         15.901821
   9         O                -8.199150         18.523771
  10         O                -6.164385         17.520380
  11         O                -6.162594         17.509403
  12         O                -6.162492         17.516562
  13         O                -1.329883          3.289471
  14         O                -1.252050          3.830372
  15         O                -1.239511          3.848538
  16         O                -1.189239          2.726977
  17         O                -1.068431          2.922111
  18         O                -1.039187          2.841487
  19         O                -0.793784          2.554376
  20         O                -0.685178          2.916563
  21         O                -0.619186          2.603989
  22         O                -0.613653          2.728667
  23         O                -0.602049          2.551674
  24         O                -0.551406          2.586934
  25         O                -0.511017          2.622652
  26         O                -0.493787          2.847438
  27         O                -0.490482          3.144983
  28         O                -0.487210          3.047708
  29         O                -0.466416          2.316737
  30         O                -0.457295          3.336595
  31         O                -0.451555          3.361736
  32         O                -0.434679          3.529029
  33         O                -0.402080          2.246299
  34         O                -0.381431          2.469342
  35         O                -0.370618          2.404710
  36         O                -0.359652          2.422266
  37         O                -0.342779          2.490312
  38         V                -0.047855          2.135509
  39         V                -0.021820          2.938816
  40         V                 0.013369          3.279853
  41         V                 0.024508          2.783063
  42         V                 0.093005          3.473643
  43         V                 0.125611          3.209387
  44         V                 0.147967          3.943631
  45         V                 0.189518          3.122114
  46         V                 0.284496          2.117667
  47         V                 0.312584          1.948024
  48         V                 0.340868          2.202531
  49         V                 0.393213          2.743216
  50         V                 0.458989          2.527272
  51         V                 0.491616          2.522150
  52         V                 0.515467          2.406838
  53         V                 0.645152          2.257461
  54         V                 0.672755          2.720852
  55         V                 0.693740          2.582429
  56         V                 0.754348          2.602997
  57         V                 0.776638          2.583853
  58         V                 0.798896          2.790609
  59         V                 0.861872          3.145152
  60         V                 0.876774          2.625467
  61         V                 0.929556          3.049360
  62         V                 0.967825          3.300925
  63         V                 0.983821          3.281138
  64         V                 0.999568          3.635442
  65         V                 1.012859          3.635489
  66         V                 1.025140          3.381052
  67         V                 1.081029          3.529968
  68         V                 1.100929          3.656588
  69         V                 1.103615          3.958214
  70         V                 1.122361          3.667877
  71         V                 1.167232          3.529248
  72         V                 1.183807          3.702531
  73         V                 1.191274          4.328035
  74         V                 1.272962          3.257372
  75         V                 1.290305          4.395407
  76         V                 1.322546          3.744240
  77         V                 1.344406          2.899902
  78         V                 1.347068          2.909799
  79         V                 1.361373          3.461603
  80         V                 1.378037          3.688080
  81         V                 1.519146          3.118911
  82         V                 1.550460          2.955950
  83         V                 1.584481          3.414810
  84         V                 1.600156          3.392729
  85         V                 1.680258          3.107450
  86         V                 1.715160          2.913575
  87         V                 1.738527          3.067070
  88         V                 1.751300          2.974955
  89         V                 1.769447          3.058330
  90         V                 1.778941          3.009972
  91         V                 1.790393          2.898084
  92         V                 1.797310          3.030072
  93         V                 1.817116          3.218989
  94         V                 1.821034          2.900059
  95         V                 1.831339          3.126836
  96         V                 1.866684          3.259134
  97         V                 1.910622          3.247207
  98         V                 1.928136          3.466136
  99         V                 1.949777          3.643940
 100         V                 1.992649          3.612117
 101         V                 2.005049          3.497499
 102         V                 2.019545          3.835075
 103         V                 2.071402          3.732839
 104         V                 2.107451          3.591844
 105         V                 2.139458          3.766918
 106         V                 2.147768          3.695514
 107         V                 2.184706          3.719474
 108         V                 2.192288          3.871896
 109         V                 2.285784          3.870513
 110         V                 2.419306          4.710231
 111         V                 2.613475          4.201024
 112         V                 2.633819          4.082453
 113         V                 2.637866          4.244923
 114         V                 2.733874          4.830406
 115         V                 2.807119          5.121273
 116         V                 2.876482          6.194240
 117         V                 3.005802          5.766107
 118         V                 3.018202          5.762575
 119         V                 3.559244         10.014818
 120         V                 3.833493         10.679056
 121         V                 3.864896         11.557021
 122         V                 3.936207         11.759460
 123         V                 4.273620         11.647359
 124         V                 4.305538         10.237488
 125         V                 4.363208         11.876586
 126         V                 5.071242         13.964025
 Total kinetic energy from orbitals= 9.558622894848D+02
 Unable to Open any file for archive entry.
 1\1\GINC-SPARTAN-BM162\SP\RB3LYP\6-31G(d)\C1H1F3O3S1\AKHALILOV\20-Mar-
 2025\0\\# B3LYP/6-31G(d) pop=full density=current\\PFMS Time step 15\\
 0,1\C,0,-0.91771,0.007338,-0.236013\F,0,-1.063113,0.172472,-1.608251\F
 ,0,-1.566163,1.047968,0.355937\F,0,-1.660171,-1.135416,0.064636\S,0,0.
 852755,-0.160564,0.266552\O,0,0.999395,-0.172038,1.719603\O,0,1.553705
 ,-1.074368,-0.542966\O,0,1.413593,1.341638,-0.171175\H,0,1.779943,1.89
 2158,0.785505\\Version=ES64L-G16RevC.01\State=1-A\HF=-961.9597817\RMSD
 =7.844e-09\Dipole=-0.0818532,0.8716081,0.2541602\Quadrupole=0.2801284,
 2.0701586,-2.3502869,3.5812428,1.6334842,2.1704454\PG=C01 [X(C1H1F3O3S
 1)]\\@
 The archive entry for this job was punched.


 WHEN ALL ELSE FAILS, TRY THE BOSS'S SUGGESTION.
 Job cpu time:       0 days  0 hours  0 minutes  9.8 seconds.
 Elapsed time:       0 days  0 hours  0 minutes  3.0 seconds.
 File lengths (MBytes):  RWF=     10 Int=      0 D2E=      0 Chk=      2 Scr=      1
 Normal termination of Gaussian 16 at Thu Mar 20 00:09:20 2025.
