 Entering Gaussian System, Link 0=g16
 Input=PFMS_1000K_step0030.gjf
 Output=PFMS_1000K_step0030.log
 Initial command:
 /apps/easybuild-2022/easybuild/software/Compiler/NVHPC/22.11-CUDA-11.7.0/Gaussian/g16c01-CUDA-11.7.0/g16/l1.exe "/tmp/Gau-269877.inp" -scrdir="/tmp/"
 Default is to use a total of   4 processors:
                                4 via shared-memory
                                1 via Linda
 Entering Link 1 = /apps/easybuild-2022/easybuild/software/Compiler/NVHPC/22.11-CUDA-11.7.0/Gaussian/g16c01-CUDA-11.7.0/g16/l1.exe PID=    269878.
  
 Copyright (c) 1988-2019, Gaussian, Inc.  All Rights Reserved.
  
 This is part of the Gaussian(R) 16 program.  It is based on
 the Gaussian(R) 09 system (copyright 2009, Gaussian, Inc.),
 the Gaussian(R) 03 system (copyright 2003, Gaussian, Inc.),
 the Gaussian(R) 98 system (copyright 1998, Gaussian, Inc.),
 the Gaussian(R) 94 system (copyright 1995, Gaussian, Inc.),
 the Gaussian 92(TM) system (copyright 1992, Gaussian, Inc.),
 the Gaussian 90(TM) system (copyright 1990, Gaussian, Inc.),
 the Gaussian 88(TM) system (copyright 1988, Gaussian, Inc.),
 the Gaussian 86(TM) system (copyright 1986, Carnegie Mellon
 University), and the Gaussian 82(TM) system (copyright 1983,
 Carnegie Mellon University). Gaussian is a federally registered
 trademark of Gaussian, Inc.
  
 This software contains proprietary and confidential information,
 including trade secrets, belonging to Gaussian, Inc.
  
 This software is provided under written license and may be
 used, copied, transmitted, or stored only in accord with that
 written license.
  
 The following legend is applicable only to US Government
 contracts under FAR:
  
                    RESTRICTED RIGHTS LEGEND
  
 Use, reproduction and disclosure by the US Government is
 subject to restrictions as set forth in subparagraphs (a)
 and (c) of the Commercial Computer Software - Restricted
 Rights clause in FAR 52.227-19.
  
 Gaussian, Inc.
 340 Quinnipiac St., Bldg. 40, Wallingford CT 06492
  
  
 ---------------------------------------------------------------
 Warning -- This program may not be used in any manner that
 competes with the business of Gaussian, Inc. or will provide
 assistance to any competitor of Gaussian, Inc.  The licensee
 of this program is prohibited from giving any competitor of
 Gaussian, Inc. access to this program.  By using this program,
 the user acknowledges that Gaussian, Inc. is engaged in the
 business of creating and licensing software in the field of
 computational chemistry and represents and warrants to the
 licensee that it is not a competitor of Gaussian, Inc. and that
 it will not use this program in any manner prohibited above.
 ---------------------------------------------------------------
  

 Cite this work as:
 Gaussian 16, Revision C.01,
 M. J. Frisch, G. W. Trucks, H. B. Schlegel, G. E. Scuseria, 
 M. A. Robb, J. R. Cheeseman, G. Scalmani, V. Barone, 
 G. A. Petersson, H. Nakatsuji, X. Li, M. Caricato, A. V. Marenich, 
 J. Bloino, B. G. Janesko, R. Gomperts, B. Mennucci, H. P. Hratchian, 
 J. V. Ortiz, A. F. Izmaylov, J. L. Sonnenberg, D. Williams-Young, 
 F. Ding, F. Lipparini, F. Egidi, J. Goings, B. Peng, A. Petrone, 
 T. Henderson, D. Ranasinghe, V. G. Zakrzewski, J. Gao, N. Rega, 
 G. Zheng, W. Liang, M. Hada, M. Ehara, K. Toyota, R. Fukuda, 
 J. Hasegawa, M. Ishida, T. Nakajima, Y. Honda, O. Kitao, H. Nakai, 
 T. Vreven, K. Throssell, J. A. Montgomery, Jr., J. E. Peralta, 
 F. Ogliaro, M. J. Bearpark, J. J. Heyd, E. N. Brothers, K. N. Kudin, 
 V. N. Staroverov, T. A. Keith, R. Kobayashi, J. Normand, 
 K. Raghavachari, A. P. Rendell, J. C. Burant, S. S. Iyengar, 
 J. Tomasi, M. Cossi, J. M. Millam, M. Klene, C. Adamo, R. Cammi, 
 J. W. Ochterski, R. L. Martin, K. Morokuma, O. Farkas, 
 J. B. Foresman, and D. J. Fox, Gaussian, Inc., Wallingford CT, 2019.
 
 ******************************************
 Gaussian 16:  ES64L-G16RevC.01  3-Jul-2019
                20-Mar-2025 
 ******************************************
 %chk=PFMS_1000K_step0030.chk
 %mem=8GB
 %nprocshared=4
 Will use up to    4 processors via shared memory.
 -----------------------------------------
 # B3LYP/6-31G(d) pop=full density=current
 -----------------------------------------
 1/30=1,38=1,172=1/1;
 2/12=2,17=6,18=5,40=1/2;
 3/5=1,6=6,7=1,11=2,25=1,30=1,74=-5/1,2,3;
 4//1;
 5/5=2,38=5/2;
 6/7=3,22=-1,28=1/1;
 99/5=1,9=1/99;
 -----------------
 PFMS Time step 30
 -----------------
 Symbolic Z-matrix:
 Charge =  0 Multiplicity = 1
 C                    -0.91453   0.02158  -0.22399 
 F                    -1.05863   0.16425  -1.61883 
 F                    -1.58074   1.0501    0.35486 
 F                    -1.67368  -1.14494   0.06151 
 S                     0.85464  -0.17351   0.26895 
 O                     1.01662  -0.17775   1.72678 
 O                     1.53571  -1.05255  -0.53867 
 O                     1.43501   1.35551  -0.18185 
 H                     1.79944   1.95157   0.83221 
 
                          Input orientation:                          
 ---------------------------------------------------------------------
 Center     Atomic      Atomic             Coordinates (Angstroms)
 Number     Number       Type             X           Y           Z
 ---------------------------------------------------------------------
      1          6           0       -0.914530    0.021578   -0.223989
      2          9           0       -1.058628    0.164253   -1.618829
      3          9           0       -1.580739    1.050099    0.354862
      4          9           0       -1.673683   -1.144939    0.061512
      5         16           0        0.854643   -0.173505    0.268950
      6          8           0        1.016620   -0.177749    1.726777
      7          8           0        1.535711   -1.052546   -0.538665
      8          8           0        1.435012    1.355510   -0.181854
      9          1           0        1.799442    1.951568    0.832207
 ---------------------------------------------------------------------
                    Distance matrix (angstroms):
                    1          2          3          4          5
     1  C    0.000000
     2  F    1.409503   0.000000
     3  F    1.355271   2.225484   0.000000
     4  F    1.420770   2.217165   2.216503   0.000000
     5  S    1.846895   2.708947   2.726843   2.716459   0.000000
     6  O    2.752192   3.951797   3.183714   3.308518   1.466804
     7  O    2.693779   3.062344   3.864164   3.266337   1.374339
     8  O    2.702128   3.114840   3.078326   3.996931   1.696449
     9  H    3.493717   4.167810   3.530740   4.716452   2.392873
                    6          7          8          9
     6  O    0.000000
     7  O    2.483335   0.000000
     8  O    2.483708   2.436429   0.000000
     9  H    2.438659   3.312634   1.231428   0.000000
 Stoichiometry    CHF3O3S
 Framework group  C1[X(CHF3O3S)]
 Deg. of freedom    21
 Full point group                 C1      NOp   1
 Largest Abelian subgroup         C1      NOp   1
 Largest concise Abelian subgroup C1      NOp   1
                         Standard orientation:                         
 ---------------------------------------------------------------------
 Center     Atomic      Atomic             Coordinates (Angstroms)
 Number     Number       Type             X           Y           Z
 ---------------------------------------------------------------------
      1          6           0       -0.983326    0.053719    0.026626
      2          9           0       -1.499536    0.016255   -1.284413
      3          9           0       -1.422274    1.201919    0.597344
      4          9           0       -1.681461   -0.997870    0.678818
      5         16           0        0.843741   -0.214677    0.055033
      6          8           0        1.400075   -0.033395    1.400077
      7          8           0        1.240128   -1.247641   -0.760241
      8          8           0        1.339416    1.186763   -0.762408
      9          1           0        1.992587    1.883978    0.014556
 ---------------------------------------------------------------------
 Rotational constants (GHZ):           2.5829316           1.4253844           1.4177518
 Standard basis: 6-31G(d) (6D, 7F)
 There are   126 symmetry adapted cartesian basis functions of A   symmetry.
 There are   126 symmetry adapted basis functions of A   symmetry.
   126 basis functions,   252 primitive gaussians,   126 cartesian basis functions
    37 alpha electrons       37 beta electrons
       nuclear repulsion energy       551.2912980868 Hartrees.
 NAtoms=    9 NActive=    9 NUniq=    9 SFac= 1.00D+00 NAtFMM=   60 NAOKFM=F Big=F
 Integral buffers will be    131072 words long.
 Raffenetti 2 integral format.
 Two-electron integral symmetry is turned on.
 One-electron integrals computed using PRISM.
 NBasis=   126 RedAO= T EigKep=  2.64D-03  NBF=   126
 NBsUse=   126 1.00D-06 EigRej= -1.00D+00 NBFU=   126
 ExpMin= 1.17D-01 ExpMax= 2.19D+04 ExpMxC= 3.30D+03 IAcc=3 IRadAn=         5 AccDes= 0.00D+00
 Harris functional with IExCor=  402 and IRadAn=       5 diagonalized for initial guess.
 HarFok:  IExCor=  402 AccDes= 0.00D+00 IRadAn=         5 IDoV= 1 UseB2=F ITyADJ=14
 ICtDFT=  3500011 ScaDFX=  1.000000  1.000000  1.000000  1.000000
 FoFCou: FMM=F IPFlag=           0 FMFlag=      100000 FMFlg1=           0
         NFxFlg=           0 DoJE=T BraDBF=F KetDBF=T FulRan=T
         wScrn=  0.000000 ICntrl=       500 IOpCl=  0 I1Cent=   200000004 NGrid=           0
         NMat0=    1 NMatS0=      1 NMatT0=    0 NMatD0=    1 NMtDS0=    0 NMtDT0=    0
 Petite list used in FoFCou.
 Keep R1 ints in memory in canonical form, NReq=35818892.
 Requested convergence on RMS density matrix=1.00D-08 within 128 cycles.
 Requested convergence on MAX density matrix=1.00D-06.
 Requested convergence on             energy=1.00D-06.
 No special actions if energy rises.
 Integral accuracy reduced to 1.0D-05 until final iterations.
 Initial convergence to 1.0D-05 achieved.  Increase integral accuracy.
 SCF Done:  E(RB3LYP) =  -961.934320556     A.U. after   15 cycles
            NFock= 15  Conv=0.51D-08     -V/T= 2.0064

 **********************************************************************

            Population analysis using the SCF Density.

 **********************************************************************

 Orbital symmetries:
       Occupied  (A) (A) (A) (A) (A) (A) (A) (A) (A) (A) (A) (A)
                 (A) (A) (A) (A) (A) (A) (A) (A) (A) (A) (A) (A)
                 (A) (A) (A) (A) (A) (A) (A) (A) (A) (A) (A) (A)
                 (A)
       Virtual   (A) (A) (A) (A) (A) (A) (A) (A) (A) (A) (A) (A)
                 (A) (A) (A) (A) (A) (A) (A) (A) (A) (A) (A) (A)
                 (A) (A) (A) (A) (A) (A) (A) (A) (A) (A) (A) (A)
                 (A) (A) (A) (A) (A) (A) (A) (A) (A) (A) (A) (A)
                 (A) (A) (A) (A) (A) (A) (A) (A) (A) (A) (A) (A)
                 (A) (A) (A) (A) (A) (A) (A) (A) (A) (A) (A) (A)
                 (A) (A) (A) (A) (A) (A) (A) (A) (A) (A) (A) (A)
                 (A) (A) (A) (A) (A)
 The electronic state is 1-A.
 Alpha  occ. eigenvalues --  -89.17272 -24.78390 -24.76154 -24.75916 -19.23912
 Alpha  occ. eigenvalues --  -19.21015 -19.19537 -10.50113  -8.19965  -6.16457
 Alpha  occ. eigenvalues --   -6.16331  -6.16286  -1.32559  -1.24970  -1.22823
 Alpha  occ. eigenvalues --   -1.19976  -1.07304  -1.02328  -0.79373  -0.68113
 Alpha  occ. eigenvalues --   -0.61549  -0.60758  -0.59475  -0.55017  -0.51120
 Alpha  occ. eigenvalues --   -0.49609  -0.48766  -0.48209  -0.46219  -0.45553
 Alpha  occ. eigenvalues --   -0.44623  -0.43030  -0.40399  -0.38763  -0.37011
 Alpha  occ. eigenvalues --   -0.35719  -0.34360
 Alpha virt. eigenvalues --   -0.06321  -0.03015   0.00344   0.01836   0.08893
 Alpha virt. eigenvalues --    0.11685   0.13949   0.19196   0.28467   0.31115
 Alpha virt. eigenvalues --    0.33859   0.39975   0.45832   0.49618   0.51809
 Alpha virt. eigenvalues --    0.64601   0.66852   0.68940   0.75171   0.76375
 Alpha virt. eigenvalues --    0.79857   0.85942   0.87386   0.92783   0.96725
 Alpha virt. eigenvalues --    0.97695   0.99906   1.01251   1.03443   1.08121
 Alpha virt. eigenvalues --    1.09671   1.10051   1.12889   1.16919   1.18543
 Alpha virt. eigenvalues --    1.21952   1.27116   1.28940   1.32409   1.34635
 Alpha virt. eigenvalues --    1.35139   1.35944   1.37995   1.52318   1.54997
 Alpha virt. eigenvalues --    1.57712   1.60073   1.68676   1.71248   1.73425
 Alpha virt. eigenvalues --    1.74986   1.76907   1.78442   1.78833   1.79751
 Alpha virt. eigenvalues --    1.81375   1.82510   1.83251   1.86314   1.90504
 Alpha virt. eigenvalues --    1.92253   1.94577   1.97268   1.98870   2.01069
 Alpha virt. eigenvalues --    2.05106   2.09198   2.11564   2.14201   2.17441
 Alpha virt. eigenvalues --    2.18334   2.29210   2.38310   2.58138   2.61846
 Alpha virt. eigenvalues --    2.64035   2.72861   2.81715   2.85578   3.00390
 Alpha virt. eigenvalues --    3.02497   3.54835   3.84484   3.86023   3.93946
 Alpha virt. eigenvalues --    4.24488   4.29373   4.34161   5.06713
     Molecular Orbital Coefficients:
                           1         2         3         4         5
                           O         O         O         O         O
     Eigenvalues --   -89.17272 -24.78390 -24.76154 -24.75916 -19.23912
   1 1   C  1S         -0.00003  -0.00003  -0.00003  -0.00002  -0.00003
   2        2S         -0.00007   0.00005  -0.00013  -0.00013  -0.00016
   3        2PX         0.00005  -0.00031  -0.00028  -0.00033   0.00003
   4        2PY        -0.00000   0.00055   0.00001  -0.00037   0.00000
   5        2PZ         0.00000   0.00026  -0.00050   0.00025   0.00002
   6        3S          0.00081   0.00039   0.00026   0.00005   0.00104
   7        3PX         0.00038   0.00049   0.00045   0.00038   0.00048
   8        3PY        -0.00012  -0.00017  -0.00012   0.00004  -0.00063
   9        3PZ        -0.00004   0.00000  -0.00004  -0.00006  -0.00008
  10        4XX        -0.00004   0.00006   0.00013   0.00022   0.00005
  11        4YY        -0.00000   0.00037   0.00005   0.00039  -0.00003
  12        4ZZ        -0.00000   0.00010   0.00056   0.00019  -0.00002
  13        4XY         0.00002  -0.00017   0.00001   0.00028   0.00004
  14        4XZ         0.00000  -0.00009   0.00026  -0.00017  -0.00001
  15        4YZ         0.00000   0.00020   0.00002  -0.00022  -0.00003
  16 2   F  1S          0.00002   0.00004   0.99302  -0.00028  -0.00004
  17        2S          0.00012   0.00006   0.01973   0.00005  -0.00019
  18        2PX         0.00001   0.00000   0.00028  -0.00001  -0.00004
  19        2PY        -0.00000   0.00001   0.00003  -0.00001  -0.00001
  20        2PZ        -0.00000   0.00002   0.00066   0.00002  -0.00000
  21        3S         -0.00043  -0.00006   0.01464  -0.00002   0.00054
  22        3PX        -0.00013  -0.00002  -0.00015   0.00003   0.00012
  23        3PY         0.00003  -0.00008  -0.00001   0.00009   0.00010
  24        3PZ        -0.00006  -0.00012  -0.00046  -0.00011  -0.00001
  25        4XX         0.00006   0.00005  -0.00796   0.00004  -0.00010
  26        4YY         0.00006  -0.00002  -0.00793  -0.00001  -0.00018
  27        4ZZ         0.00007  -0.00006  -0.00832  -0.00007  -0.00016
  28        4XY        -0.00000   0.00001  -0.00001  -0.00003   0.00001
  29        4XZ        -0.00003  -0.00002  -0.00019   0.00001  -0.00001
  30        4YZ         0.00001  -0.00009  -0.00001   0.00008   0.00003
  31 3   F  1S          0.00001   0.99301  -0.00005  -0.00003  -0.00005
  32        2S          0.00009   0.01973   0.00004   0.00006  -0.00028
  33        2PX         0.00002   0.00027   0.00000  -0.00000  -0.00002
  34        2PY         0.00000  -0.00065  -0.00001  -0.00002   0.00001
  35        2PZ         0.00000  -0.00032  -0.00002   0.00000   0.00001
  36        3S         -0.00030   0.01472   0.00006  -0.00004   0.00096
  37        3PX        -0.00013  -0.00016  -0.00001   0.00001   0.00010
  38        3PY         0.00004   0.00047   0.00004   0.00014  -0.00009
  39        3PZ         0.00001   0.00022   0.00014  -0.00002  -0.00009
  40        4XX         0.00004  -0.00797   0.00003   0.00004  -0.00016
  41        4YY         0.00005  -0.00830  -0.00001  -0.00011  -0.00019
  42        4ZZ         0.00005  -0.00804  -0.00010   0.00004  -0.00019
  43        4XY         0.00003   0.00017   0.00002  -0.00002  -0.00000
  44        4XZ         0.00002   0.00008  -0.00002   0.00003  -0.00001
  45        4YZ         0.00001  -0.00020  -0.00007   0.00002   0.00002
  46 4   F  1S          0.00002   0.00004   0.00029   0.99302   0.00004
  47        2S          0.00013   0.00010   0.00008   0.01971   0.00025
  48        2PX         0.00001   0.00001   0.00000   0.00037   0.00003
  49        2PY        -0.00001   0.00002   0.00001   0.00051   0.00001
  50        2PZ         0.00000   0.00000  -0.00003  -0.00031  -0.00002
  51        3S         -0.00046  -0.00017  -0.00007   0.01474  -0.00088
  52        3PX        -0.00015  -0.00005  -0.00002  -0.00020  -0.00020
  53        3PY        -0.00002  -0.00016  -0.00003  -0.00032  -0.00007
  54        3PZ         0.00004  -0.00001   0.00016   0.00019   0.00012
  55        4XX         0.00006   0.00006   0.00004  -0.00802   0.00016
  56        4YY         0.00009  -0.00010   0.00004  -0.00817   0.00018
  57        4ZZ         0.00007   0.00006  -0.00010  -0.00803   0.00016
  58        4XY        -0.00002  -0.00003  -0.00002  -0.00019  -0.00003
  59        4XZ         0.00002   0.00002   0.00000   0.00012   0.00002
  60        4YZ        -0.00001  -0.00001   0.00007   0.00017   0.00001
  61 5   S  1S          0.99612   0.00000   0.00000   0.00000   0.00000
  62        2S          0.01487   0.00005   0.00005   0.00003   0.00006
  63        2PX        -0.00001   0.00001   0.00001   0.00001  -0.00000
  64        2PY         0.00002  -0.00000  -0.00000  -0.00000  -0.00007
  65        2PZ        -0.00001   0.00000  -0.00000  -0.00000   0.00004
  66        3S         -0.02413   0.00022   0.00019   0.00008   0.00001
  67        3PX         0.00008  -0.00009  -0.00009  -0.00012  -0.00011
  68        3PY        -0.00006   0.00003   0.00004   0.00002   0.00018
  69        3PZ         0.00003  -0.00003   0.00002   0.00001  -0.00010
  70        4S          0.00152  -0.00146  -0.00133  -0.00104  -0.00339
  71        4PX        -0.00003   0.00045   0.00052   0.00049   0.00030
  72        4PY        -0.00004  -0.00073  -0.00008   0.00023  -0.00079
  73        4PZ         0.00008  -0.00029   0.00079  -0.00013   0.00122
  74        5XX         0.00849   0.00003   0.00004   0.00002   0.00016
  75        5YY         0.00857   0.00005   0.00004   0.00004   0.00030
  76        5ZZ         0.00862   0.00002   0.00004   0.00002   0.00017
  77        5XY        -0.00001  -0.00001  -0.00001  -0.00000   0.00004
  78        5XZ         0.00001  -0.00000   0.00000  -0.00001  -0.00003
  79        5YZ         0.00005   0.00000  -0.00001  -0.00003  -0.00017
  80 6   O  1S          0.00001  -0.00004   0.00002  -0.00003  -0.00005
  81        2S          0.00000  -0.00019   0.00007  -0.00011  -0.00006
  82        2PX         0.00003   0.00003   0.00001   0.00003  -0.00001
  83        2PY         0.00002  -0.00002  -0.00001   0.00001  -0.00003
  84        2PZ         0.00011   0.00001  -0.00000   0.00001   0.00000
  85        3S          0.00040   0.00095  -0.00037   0.00054   0.00044
  86        3PX        -0.00007  -0.00021  -0.00004  -0.00018  -0.00005
  87        3PY        -0.00004   0.00013   0.00005  -0.00008   0.00014
  88        3PZ        -0.00029  -0.00019   0.00001  -0.00009  -0.00021
  89        4XX         0.00001  -0.00011   0.00006  -0.00007  -0.00002
  90        4YY         0.00005  -0.00013   0.00006  -0.00008  -0.00007
  91        4ZZ        -0.00017  -0.00012   0.00006  -0.00008  -0.00005
  92        4XY        -0.00001  -0.00001  -0.00000   0.00001  -0.00003
  93        4XZ        -0.00012   0.00002   0.00000   0.00002   0.00002
  94        4YZ        -0.00003  -0.00002  -0.00001   0.00001   0.00004
  95 7   O  1S          0.00001   0.00001  -0.00004  -0.00003  -0.00003
  96        2S         -0.00005   0.00004  -0.00018  -0.00013  -0.00023
  97        2PX         0.00004   0.00001   0.00001   0.00003   0.00002
  98        2PY        -0.00014  -0.00001  -0.00002   0.00000  -0.00000
  99        2PZ        -0.00011   0.00001   0.00001  -0.00002   0.00003
 100        3S          0.00049  -0.00023   0.00096   0.00064   0.00155
 101        3PX        -0.00004  -0.00005  -0.00017  -0.00018  -0.00020
 102        3PY         0.00026   0.00006   0.00022   0.00006   0.00033
 103        3PZ         0.00019  -0.00003  -0.00004   0.00014  -0.00000
 104        4XX         0.00003   0.00004  -0.00010  -0.00008  -0.00012
 105        4YY        -0.00008   0.00005  -0.00009  -0.00009  -0.00023
 106        4ZZ        -0.00002   0.00003  -0.00013  -0.00008  -0.00016
 107        4XY         0.00007  -0.00000  -0.00002  -0.00002  -0.00005
 108        4XZ         0.00006   0.00000  -0.00000  -0.00002   0.00002
 109        4YZ        -0.00013  -0.00000  -0.00002   0.00001   0.00003
 110 8   O  1S         -0.00002  -0.00003  -0.00003   0.00000   0.99284
 111        2S         -0.00002  -0.00014  -0.00016   0.00000   0.02571
 112        2PX        -0.00003   0.00001   0.00001   0.00001   0.00015
 113        2PY        -0.00003   0.00002   0.00002  -0.00000  -0.00011
 114        2PZ        -0.00000  -0.00001   0.00000   0.00000   0.00082
 115        3S          0.00055   0.00071   0.00078   0.00001   0.01150
 116        3PX        -0.00002  -0.00015  -0.00014  -0.00007  -0.00031
 117        3PY        -0.00022  -0.00015  -0.00022  -0.00000  -0.00054
 118        3PZ         0.00020   0.00016   0.00000   0.00001   0.00012
 119        4XX        -0.00006  -0.00007  -0.00009   0.00000  -0.00791
 120        4YY        -0.00010  -0.00009  -0.00008  -0.00000  -0.00791
 121        4ZZ        -0.00006  -0.00006  -0.00011   0.00000  -0.00795
 122        4XY        -0.00002   0.00001   0.00003   0.00001   0.00003
 123        4XZ         0.00003  -0.00002  -0.00000  -0.00000  -0.00000
 124        4YZ         0.00006  -0.00001   0.00001   0.00000   0.00002
 125 9   H  1S         -0.00006  -0.00003  -0.00001   0.00001   0.00020
 126        2S         -0.00008   0.00011   0.00001  -0.00002  -0.00067
                           6         7         8         9        10
                           O         O         O         O         O
     Eigenvalues --   -19.21015 -19.19537 -10.50113  -8.19965  -6.16457
   1 1   C  1S         -0.00001  -0.00001   0.99339   0.00001  -0.00001
   2        2S         -0.00006  -0.00009   0.04655   0.00074  -0.00018
   3        2PX         0.00003   0.00001  -0.00062  -0.00011  -0.00005
   4        2PY         0.00004  -0.00001   0.00032  -0.00005  -0.00014
   5        2PZ         0.00003  -0.00005   0.00009  -0.00001   0.00005
   6        3S          0.00036   0.00050  -0.01279  -0.00192   0.00008
   7        3PX         0.00022   0.00037  -0.00289  -0.00184  -0.00010
   8        3PY        -0.00038   0.00040   0.00039   0.00101  -0.00171
   9        3PZ        -0.00072   0.00057   0.00022   0.00041   0.00043
  10        4XX         0.00003   0.00004  -0.00827  -0.00067   0.00004
  11        4YY        -0.00003   0.00001  -0.00769  -0.00014   0.00014
  12        4ZZ         0.00002  -0.00003  -0.00783  -0.00017  -0.00001
  13        4XY         0.00001  -0.00002  -0.00005   0.00005  -0.00034
  14        4XZ         0.00003  -0.00001  -0.00006  -0.00003   0.00015
  15        4YZ        -0.00001   0.00002   0.00013  -0.00000  -0.00015
  16 2   F  1S          0.00000   0.00001  -0.00011  -0.00016   0.00000
  17        2S          0.00002   0.00003  -0.00035  -0.00090   0.00001
  18        2PX        -0.00003   0.00004   0.00000  -0.00020   0.00001
  19        2PY        -0.00001   0.00000   0.00000   0.00005  -0.00013
  20        2PZ         0.00002  -0.00001   0.00001  -0.00002   0.00003
  21        3S         -0.00021   0.00002   0.00181   0.00294   0.00003
  22        3PX         0.00007  -0.00012   0.00002   0.00104   0.00003
  23        3PY         0.00003  -0.00004  -0.00004  -0.00026   0.00059
  24        3PZ        -0.00015   0.00008  -0.00040   0.00031  -0.00009
  25        4XX         0.00003   0.00002  -0.00023  -0.00048   0.00005
  26        4YY        -0.00003   0.00005  -0.00006  -0.00067   0.00003
  27        4ZZ        -0.00004   0.00006  -0.00089  -0.00065  -0.00001
  28        4XY        -0.00001   0.00000   0.00000  -0.00003   0.00013
  29        4XZ        -0.00002  -0.00001  -0.00021   0.00020  -0.00002
  30        4YZ         0.00002  -0.00002  -0.00004  -0.00007   0.00008
  31 3   F  1S          0.00000  -0.00000  -0.00009  -0.00010  -0.00007
  32        2S          0.00000   0.00000  -0.00014  -0.00057  -0.00043
  33        2PX         0.00004  -0.00003   0.00000  -0.00021  -0.00003
  34        2PY         0.00001  -0.00001  -0.00003   0.00001  -0.00005
  35        2PZ        -0.00001   0.00000  -0.00001  -0.00001   0.00010
  36        3S          0.00012  -0.00016   0.00095   0.00157   0.00162
  37        3PX        -0.00010   0.00004  -0.00007   0.00097   0.00024
  38        3PY        -0.00010   0.00011   0.00074  -0.00013   0.00010
  39        3PZ         0.00003   0.00001   0.00033   0.00001  -0.00047
  40        4XX         0.00001   0.00001  -0.00006  -0.00028  -0.00022
  41        4YY         0.00006  -0.00006  -0.00068  -0.00044  -0.00035
  42        4ZZ         0.00003  -0.00003  -0.00009  -0.00049  -0.00024
  43        4XY         0.00000   0.00001   0.00021  -0.00018   0.00002
  44        4XZ        -0.00000   0.00002   0.00009  -0.00008  -0.00010
  45        4YZ        -0.00001   0.00001  -0.00045   0.00001   0.00000
  46 4   F  1S         -0.00003  -0.00003  -0.00011  -0.00013   0.00019
  47        2S         -0.00018  -0.00015  -0.00034  -0.00075   0.00108
  48        2PX        -0.00003  -0.00002  -0.00001  -0.00018   0.00012
  49        2PY        -0.00001   0.00000   0.00002   0.00003  -0.00003
  50        2PZ        -0.00001   0.00001  -0.00001   0.00002  -0.00001
  51        3S          0.00055   0.00049   0.00174   0.00246  -0.00379
  52        3PX         0.00010   0.00007   0.00001   0.00098  -0.00083
  53        3PY         0.00008  -0.00002  -0.00040  -0.00001  -0.00008
  54        3PZ         0.00007  -0.00010   0.00019  -0.00022   0.00022
  55        4XX        -0.00012  -0.00010  -0.00029  -0.00033   0.00054
  56        4YY        -0.00012  -0.00015  -0.00064  -0.00061   0.00082
  57        4ZZ        -0.00018  -0.00011  -0.00029  -0.00052   0.00073
  58        4XY        -0.00000  -0.00000  -0.00027   0.00012  -0.00003
  59        4XZ        -0.00001   0.00000   0.00016  -0.00011   0.00005
  60        4YZ         0.00001  -0.00003   0.00038   0.00001  -0.00005
  61 5   S  1S          0.00001   0.00001  -0.00001  -0.27990   0.00043
  62        2S         -0.00007  -0.00004  -0.00019   1.02294  -0.00181
  63        2PX         0.00004   0.00001  -0.00001  -0.00018   0.23526
  64        2PY        -0.00007  -0.00001   0.00001   0.00112   0.86485
  65        2PZ        -0.00005  -0.00000   0.00001  -0.00157  -0.42306
  66        3S          0.00090   0.00075  -0.00066   0.07285  -0.00097
  67        3PX        -0.00011  -0.00002  -0.00010   0.00033   0.00696
  68        3PY         0.00008   0.00010  -0.00009  -0.00033   0.02703
  69        3PZ         0.00001   0.00023  -0.00000  -0.00037  -0.01271
  70        4S         -0.00333  -0.00322   0.00770  -0.00786   0.00144
  71        4PX        -0.00039  -0.00061  -0.00306   0.00167  -0.00192
  72        4PY         0.00166  -0.00097   0.00137  -0.00127  -0.00426
  73        4PZ         0.00209  -0.00215  -0.00046  -0.00029   0.00243
  74        5XX        -0.00025  -0.00013  -0.00012  -0.01529  -0.00031
  75        5YY        -0.00037  -0.00018  -0.00018  -0.01487   0.00068
  76        5ZZ        -0.00033  -0.00007  -0.00006  -0.01464  -0.00028
  77        5XY         0.00007   0.00003   0.00005  -0.00015   0.00083
  78        5XZ         0.00003   0.00004   0.00000   0.00010  -0.00042
  79        5YZ        -0.00013   0.00001   0.00007   0.00050  -0.00157
  80 6   O  1S         -0.00018   0.99275   0.00006  -0.00009   0.00010
  81        2S          0.00008   0.02569   0.00030   0.00043  -0.00000
  82        2PX        -0.00004  -0.00040  -0.00004   0.00000  -0.00003
  83        2PY         0.00006  -0.00013   0.00004  -0.00011  -0.00001
  84        2PZ         0.00000  -0.00089   0.00000  -0.00030   0.00009
  85        3S         -0.00044   0.01258  -0.00171  -0.00322   0.00025
  86        3PX         0.00019  -0.00027   0.00057   0.00056  -0.00033
  87        3PY        -0.00030   0.00006  -0.00022   0.00071  -0.00081
  88        3PZ        -0.00014  -0.00059   0.00040   0.00286  -0.00073
  89        4XX         0.00007  -0.00809   0.00019   0.00028   0.00015
  90        4YY         0.00004  -0.00809   0.00011   0.00022   0.00018
  91        4ZZ         0.00009  -0.00806   0.00014   0.00018  -0.00017
  92        4XY         0.00002  -0.00001  -0.00000  -0.00000   0.00028
  93        4XZ         0.00001   0.00001  -0.00006   0.00005   0.00016
  94        4YZ        -0.00002  -0.00001   0.00005  -0.00001   0.00060
  95 7   O  1S          0.99266   0.00021   0.00005  -0.00018   0.00029
  96        2S          0.02569   0.00007   0.00025   0.00085  -0.00021
  97        2PX        -0.00039  -0.00004  -0.00002  -0.00007   0.00004
  98        2PY         0.00090   0.00003   0.00002   0.00047  -0.00028
  99        2PZ         0.00075  -0.00004  -0.00003   0.00045  -0.00022
 100        3S          0.01360  -0.00026  -0.00157  -0.00546   0.00169
 101        3PX        -0.00028   0.00021   0.00048   0.00051  -0.00054
 102        3PY         0.00070   0.00003  -0.00046  -0.00268   0.00086
 103        3PZ         0.00036   0.00035  -0.00001  -0.00238   0.00164
 104        4XX        -0.00829   0.00005   0.00019   0.00037   0.00011
 105        4YY        -0.00813   0.00007   0.00005   0.00048  -0.00059
 106        4ZZ        -0.00822   0.00004   0.00012   0.00042   0.00038
 107        4XY        -0.00008   0.00002   0.00003  -0.00013   0.00003
 108        4XZ        -0.00005  -0.00003   0.00003  -0.00011  -0.00016
 109        4YZ         0.00014   0.00003   0.00006   0.00021  -0.00007
 110 8   O  1S         -0.00007  -0.00000   0.00008   0.00002   0.00006
 111        2S         -0.00013  -0.00014   0.00037   0.00032   0.00114
 112        2PX        -0.00001  -0.00001   0.00000   0.00015   0.00006
 113        2PY         0.00004  -0.00001  -0.00003   0.00009   0.00005
 114        2PZ         0.00004  -0.00005  -0.00000   0.00002   0.00010
 115        3S          0.00086   0.00090  -0.00222  -0.00153  -0.00413
 116        3PX         0.00002   0.00000   0.00037  -0.00011   0.00104
 117        3PY        -0.00032  -0.00008   0.00058   0.00152   0.00326
 118        3PZ        -0.00020   0.00040  -0.00028  -0.00113  -0.00248
 119        4XX        -0.00008  -0.00009   0.00031   0.00027   0.00067
 120        4YY        -0.00015  -0.00011   0.00016  -0.00034  -0.00058
 121        4ZZ        -0.00013  -0.00012   0.00014   0.00011   0.00029
 122        4XY         0.00002  -0.00001  -0.00003  -0.00023  -0.00068
 123        4XZ         0.00003  -0.00004   0.00001   0.00006   0.00031
 124        4YZ        -0.00001  -0.00001  -0.00002   0.00038   0.00092
 125 9   H  1S          0.00002  -0.00004   0.00008   0.00012   0.00026
 126        2S         -0.00008   0.00008  -0.00027   0.00068   0.00069
                          11        12        13        14        15
                           O         O         O         O         O
     Eigenvalues --    -6.16331  -6.16286  -1.32559  -1.24970  -1.22823
   1 1   C  1S          0.00002  -0.00011  -0.09198   0.01814  -0.00213
   2        2S          0.00098  -0.00178   0.18909  -0.03778   0.00448
   3        2PX        -0.00009   0.00006  -0.05460   0.01752  -0.01213
   4        2PY        -0.00005  -0.00001   0.04138   0.11226  -0.06757
   5        2PZ        -0.00007  -0.00003   0.01470   0.07591   0.10598
   6        3S         -0.00268   0.00572   0.01747  -0.00972   0.00128
   7        3PX        -0.00225   0.00343   0.01830  -0.00497   0.00042
   8        3PY        -0.00109  -0.00146  -0.00356  -0.00390  -0.00027
   9        3PZ        -0.00248  -0.00205  -0.00009  -0.00431  -0.00155
  10        4XX        -0.00089   0.00111  -0.00898  -0.00123   0.00224
  11        4YY        -0.00021   0.00002   0.00391   0.01325   0.01032
  12        4ZZ         0.00002   0.00016  -0.00302  -0.01079  -0.01276
  13        4XY        -0.00002  -0.00025  -0.00389  -0.01277   0.00951
  14        4XZ        -0.00028  -0.00017  -0.00202  -0.00717  -0.01287
  15        4YZ        -0.00005   0.00004   0.00624   0.01474  -0.01006
  16 2   F  1S          0.00001   0.00031  -0.09526   0.13590   0.14913
  17        2S          0.00009   0.00179   0.20689  -0.30376  -0.33554
  18        2PX        -0.00015   0.00027   0.01680  -0.02086  -0.02355
  19        2PY        -0.00004  -0.00006   0.00378   0.00704  -0.00778
  20        2PZ         0.00000   0.00007   0.05136  -0.04891  -0.04428
  21        3S         -0.00078  -0.00629   0.20961  -0.29186  -0.31943
  22        3PX         0.00056  -0.00170   0.00953  -0.01197  -0.01429
  23        3PY         0.00023   0.00035   0.00328   0.00527  -0.00511
  24        3PZ        -0.00017  -0.00087   0.03729  -0.02895  -0.02490
  25        4XX         0.00009   0.00095   0.00209  -0.00583  -0.00713
  26        4YY        -0.00005   0.00117   0.00008  -0.00350  -0.00467
  27        4ZZ         0.00001   0.00122   0.01400  -0.01358  -0.01354
  28        4XY         0.00004   0.00004   0.00025   0.00026  -0.00023
  29        4XZ         0.00011  -0.00032   0.00557  -0.00490  -0.00510
  30        4YZ         0.00004   0.00008   0.00095   0.00095  -0.00124
  31 3   F  1S         -0.00026   0.00008  -0.16181  -0.15122   0.01252
  32        2S         -0.00152   0.00045   0.35885   0.34305  -0.02869
  33        2PX        -0.00022   0.00022   0.02641   0.02397  -0.00298
  34        2PY         0.00010  -0.00001  -0.07434  -0.04397  -0.00292
  35        2PZ        -0.00006  -0.00007  -0.03720  -0.02009   0.01251
  36        3S          0.00534  -0.00116   0.34294   0.31721  -0.02580
  37        3PX         0.00135  -0.00107   0.01296   0.01354  -0.00185
  38        3PY        -0.00086   0.00011  -0.04480  -0.02006  -0.00282
  39        3PZ         0.00013   0.00041  -0.02279  -0.00832   0.00813
  40        4XX        -0.00082   0.00021   0.00545   0.00784  -0.00080
  41        4YY        -0.00096   0.00032   0.01760   0.01188   0.00039
  42        4ZZ        -0.00107   0.00032   0.00680   0.00702  -0.00200
  43        4XY        -0.00027   0.00017  -0.00594  -0.00383   0.00025
  44        4XZ        -0.00006   0.00014  -0.00291  -0.00175   0.00054
  45        4YZ        -0.00006  -0.00009   0.00838   0.00311  -0.00137
  46 4   F  1S         -0.00012   0.00017  -0.09067   0.10413  -0.17610
  47        2S         -0.00071   0.00097   0.19619  -0.23232   0.39556
  48        2PX        -0.00018   0.00023   0.02238  -0.02130   0.03391
  49        2PY        -0.00006  -0.00005   0.04047  -0.02449   0.04412
  50        2PZ        -0.00011  -0.00011  -0.02277   0.02627  -0.02149
  51        3S          0.00229  -0.00320   0.20081  -0.22401   0.37792
  52        3PX         0.00098  -0.00131   0.01417  -0.01268   0.02059
  53        3PY         0.00043   0.00010   0.03029  -0.01407   0.02573
  54        3PZ         0.00049   0.00068  -0.01686   0.01708  -0.01159
  55        4XX        -0.00031   0.00045   0.00330  -0.00546   0.00989
  56        4YY        -0.00048   0.00082   0.00877  -0.00651   0.01275
  57        4ZZ        -0.00061   0.00063   0.00285  -0.00553   0.00725
  58        4XY         0.00019  -0.00012   0.00606  -0.00368   0.00611
  59        4XZ         0.00002   0.00021  -0.00362   0.00298  -0.00355
  60        4YZ         0.00007   0.00002  -0.00613   0.00420  -0.00461
  61 5   S  1S         -0.00019  -0.00031   0.00492  -0.00360   0.00011
  62        2S          0.00057   0.00131  -0.02327   0.01622  -0.00042
  63        2PX        -0.51743   0.81184   0.00704  -0.00130   0.00052
  64        2PY         0.48040   0.05577  -0.00036  -0.00456   0.00139
  65        2PZ         0.69493   0.56544   0.00064  -0.00350  -0.00312
  66        3S         -0.00061  -0.00052   0.03687  -0.03205   0.00128
  67        3PX        -0.01626   0.02560  -0.01650   0.00365  -0.00097
  68        3PY         0.01653   0.00210   0.00113   0.00915  -0.00284
  69        3PZ         0.02329   0.01878  -0.00133   0.00768   0.00679
  70        4S         -0.00297   0.00084   0.01126   0.00173  -0.00009
  71        4PX         0.00269  -0.00366  -0.00409   0.00337  -0.00192
  72        4PY        -0.00120   0.00026   0.00477   0.01401  -0.00575
  73        4PZ        -0.00090  -0.00136   0.00155   0.01163   0.01223
  74        5XX         0.00097  -0.00062   0.00739  -0.00103   0.00090
  75        5YY        -0.00143   0.00031  -0.00192   0.00128  -0.00063
  76        5ZZ         0.00002   0.00191  -0.00187   0.00060  -0.00034
  77        5XY         0.00051   0.00033  -0.00272  -0.00144   0.00191
  78        5XZ         0.00110   0.00076  -0.00001  -0.00138  -0.00265
  79        5YZ        -0.00109   0.00009   0.00140  -0.00183   0.00020
  80 6   O  1S         -0.00021  -0.00020  -0.00412   0.00324  -0.00101
  81        2S          0.00033   0.00111   0.01027  -0.00452   0.00401
  82        2PX        -0.00003  -0.00018  -0.00289   0.00123  -0.00095
  83        2PY         0.00003  -0.00003  -0.00028   0.00107  -0.00058
  84        2PZ        -0.00016  -0.00038  -0.00471   0.00311  -0.00097
  85        3S         -0.00284  -0.00681   0.00239  -0.01675  -0.00579
  86        3PX         0.00139   0.00158   0.00060   0.00058   0.00053
  87        3PY        -0.00029   0.00050  -0.00089  -0.00171   0.00170
  88        3PZ         0.00197   0.00459  -0.00082   0.00342   0.00027
  89        4XX        -0.00021   0.00077   0.00042   0.00097   0.00062
  90        4YY         0.00008   0.00058   0.00035   0.00101   0.00043
  91        4ZZ         0.00031   0.00017   0.00156   0.00028   0.00110
  92        4XY         0.00003   0.00002   0.00010  -0.00011  -0.00003
  93        4XZ        -0.00037   0.00019   0.00052  -0.00037   0.00006
  94        4YZ         0.00031  -0.00008   0.00031   0.00016  -0.00006
  95 7   O  1S          0.00056   0.00017  -0.00599   0.00861   0.00049
  96        2S         -0.00165   0.00005   0.01360  -0.02149  -0.00139
  97        2PX         0.00036   0.00004  -0.00324   0.00385   0.00014
  98        2PY        -0.00091  -0.00014   0.00566  -0.00729  -0.00093
  99        2PZ        -0.00064  -0.00002   0.00414  -0.00559   0.00056
 100        3S          0.00991   0.00039   0.00858  -0.00215   0.00131
 101        3PX        -0.00168  -0.00083   0.00057   0.00061   0.00079
 102        3PY         0.00479   0.00047   0.00063  -0.00136   0.00187
 103        3PZ         0.00305  -0.00047   0.00112  -0.00069  -0.00188
 104        4XX        -0.00062   0.00037   0.00006  -0.00082  -0.00020
 105        4YY        -0.00079   0.00009   0.00084  -0.00174   0.00017
 106        4ZZ        -0.00090  -0.00019   0.00061  -0.00125  -0.00028
 107        4XY         0.00031  -0.00027  -0.00046   0.00055   0.00014
 108        4XZ         0.00030  -0.00015  -0.00039   0.00031  -0.00005
 109        4YZ        -0.00047  -0.00039   0.00081  -0.00139  -0.00009
 110 8   O  1S         -0.00005   0.00013  -0.00345   0.00217   0.00131
 111        2S         -0.00031   0.00052   0.00778  -0.00415  -0.00367
 112        2PX         0.00010  -0.00002  -0.00170   0.00053   0.00044
 113        2PY         0.00009   0.00006  -0.00243   0.00194   0.00081
 114        2PZ         0.00006   0.00011   0.00208  -0.00066  -0.00029
 115        3S          0.00142  -0.00221   0.00374  -0.00722   0.00249
 116        3PX        -0.00046  -0.00024   0.00000  -0.00020   0.00166
 117        3PY        -0.00124  -0.00024  -0.00016   0.00149  -0.00178
 118        3PZ        -0.00038  -0.00092   0.00042  -0.00272  -0.00049
 119        4XX        -0.00029   0.00062   0.00003   0.00029  -0.00044
 120        4YY         0.00051   0.00048   0.00057  -0.00006   0.00007
 121        4ZZ        -0.00064   0.00008   0.00010  -0.00035  -0.00016
 122        4XY        -0.00009   0.00041   0.00018  -0.00023  -0.00021
 123        4XZ         0.00027  -0.00016  -0.00005  -0.00011   0.00004
 124        4YZ         0.00008   0.00034  -0.00041   0.00056   0.00014
 125 9   H  1S          0.00009   0.00020   0.00079  -0.00000  -0.00037
 126        2S          0.00043   0.00089  -0.00068  -0.00224   0.00046
                          16        17        18        19        20
                           O         O         O         O         O
     Eigenvalues --    -1.19976  -1.07304  -1.02328  -0.79373  -0.68113
   1 1   C  1S         -0.00487  -0.00410  -0.00217  -0.13392   0.08272
   2        2S         -0.00078   0.00483   0.00335   0.31007  -0.20480
   3        2PX         0.03415   0.01186   0.00654   0.15592   0.23087
   4        2PY        -0.00054   0.00041   0.00245  -0.01494  -0.05682
   5        2PZ         0.00378   0.00229  -0.00310   0.00522  -0.01661
   6        3S          0.04735   0.01962   0.00897   0.23336  -0.12042
   7        3PX         0.02100   0.00844   0.00409   0.08927   0.00787
   8        3PY        -0.00065   0.00363   0.00609  -0.01440  -0.00632
   9        3PZ         0.00161   0.00400  -0.00345  -0.00112  -0.00462
  10        4XX         0.00688   0.00172   0.00051   0.00656   0.01232
  11        4YY        -0.00166  -0.00164  -0.00005  -0.01119  -0.00050
  12        4ZZ        -0.00319  -0.00037  -0.00098  -0.01208   0.00272
  13        4XY        -0.00179   0.00051   0.00138  -0.00298   0.00192
  14        4XZ        -0.00029   0.00085  -0.00120   0.00025   0.00114
  15        4YZ         0.00069  -0.00060  -0.00063   0.00040  -0.00279
  16 2   F  1S          0.01849  -0.00088   0.00361   0.04805  -0.03845
  17        2S         -0.04249   0.00407  -0.01069  -0.10551   0.08340
  18        2PX         0.00101   0.00033   0.00213   0.07447   0.00121
  19        2PY        -0.00033   0.00056   0.00079  -0.00157  -0.02169
  20        2PZ        -0.00602   0.00006   0.00020   0.09329  -0.19834
  21        3S         -0.04103  -0.00218  -0.00517  -0.14871   0.12377
  22        3PX         0.00014  -0.00224   0.00330   0.03937   0.00524
  23        3PY        -0.00080   0.00108   0.00032   0.00040  -0.01353
  24        3PZ        -0.00525   0.00005  -0.00031   0.05493  -0.12108
  25        4XX        -0.00047   0.00057  -0.00067   0.00314   0.00379
  26        4YY        -0.00148   0.00088  -0.00169  -0.00227   0.00168
  27        4ZZ        -0.00273   0.00127  -0.00165   0.00798  -0.01569
  28        4XY        -0.00031   0.00050   0.00038  -0.00010  -0.00047
  29        4XZ        -0.00046  -0.00009   0.00023   0.00701  -0.00109
  30        4YZ        -0.00009  -0.00002  -0.00014   0.00025  -0.00188
  31 3   F  1S          0.00475   0.00598   0.00243   0.05094  -0.05205
  32        2S         -0.00873  -0.01631  -0.00683  -0.11336   0.10881
  33        2PX         0.00293   0.00289   0.00188   0.08265  -0.00824
  34        2PY         0.00181  -0.00011   0.00052  -0.10439   0.25955
  35        2PZ         0.00132   0.00036  -0.00127  -0.04831   0.13365
  36        3S         -0.01776  -0.01145  -0.00494  -0.15483   0.18204
  37        3PX        -0.00044   0.00411   0.00246   0.04279   0.00246
  38        3PY         0.00342   0.00074   0.00086  -0.06151   0.15145
  39        3PZ         0.00168   0.00119  -0.00066  -0.02889   0.07861
  40        4XX         0.00110  -0.00057  -0.00019   0.00205   0.00278
  41        4YY        -0.00009  -0.00206  -0.00092   0.00639  -0.01616
  42        4ZZ         0.00015  -0.00204  -0.00106  -0.00088  -0.00385
  43        4XY         0.00005  -0.00046   0.00009  -0.00693   0.00089
  44        4XZ         0.00006   0.00010  -0.00062  -0.00319   0.00051
  45        4YZ        -0.00020  -0.00007   0.00000   0.00514  -0.01009
  46 4   F  1S          0.01589   0.00203  -0.00209   0.04665  -0.04000
  47        2S         -0.03491  -0.00394   0.00571  -0.10319   0.08594
  48        2PX         0.00044   0.00118  -0.00058   0.08356  -0.03266
  49        2PY        -0.00424   0.00007  -0.00032   0.06661  -0.17467
  50        2PZ         0.00296   0.00059   0.00000  -0.04299   0.09417
  51        3S         -0.03874  -0.00659   0.00462  -0.14232   0.13045
  52        3PX        -0.00174  -0.00033  -0.00175   0.04530  -0.01540
  53        3PY        -0.00434   0.00012   0.00045   0.04096  -0.10736
  54        3PZ         0.00207   0.00114  -0.00066  -0.02528   0.05800
  55        4XX        -0.00005   0.00032   0.00021   0.00443   0.00212
  56        4YY        -0.00125   0.00002   0.00071   0.00353  -0.01138
  57        4ZZ        -0.00079   0.00020   0.00076  -0.00039  -0.00273
  58        4XY        -0.00076   0.00024  -0.00005   0.00627  -0.00416
  59        4XZ         0.00023   0.00048  -0.00008  -0.00396   0.00194
  60        4YZ         0.00049  -0.00009   0.00001  -0.00432   0.00835
  61 5   S  1S          0.05260   0.01013  -0.00156   0.02828   0.03043
  62        2S         -0.23532  -0.04505   0.00817  -0.12257  -0.13511
  63        2PX        -0.03315  -0.00988   0.00649   0.11554   0.04809
  64        2PY         0.04201  -0.08539  -0.05749  -0.02975  -0.03194
  65        2PZ         0.02263  -0.11176   0.06598   0.00628   0.01345
  66        3S          0.48918   0.09476  -0.01595   0.29935   0.32678
  67        3PX         0.06231   0.01957  -0.01549  -0.28956  -0.12145
  68        3PY        -0.08392   0.19079   0.12806   0.07559   0.08112
  69        3PZ        -0.04908   0.24828  -0.14810  -0.01510  -0.03363
  70        4S         -0.05492  -0.02028  -0.01387   0.01778   0.14533
  71        4PX        -0.00175  -0.00197   0.00082   0.01360  -0.04748
  72        4PY        -0.00303  -0.02631  -0.01963   0.00094   0.02209
  73        4PZ         0.00737  -0.02380   0.01205   0.00637  -0.00166
  74        5XX        -0.03631   0.00290   0.00343   0.04578   0.00155
  75        5YY         0.00026  -0.03563   0.03308  -0.01878  -0.00902
  76        5ZZ         0.00439   0.03402  -0.02695  -0.02923  -0.01314
  77        5XY        -0.01304   0.02641   0.01433  -0.00480   0.00536
  78        5XZ        -0.00426   0.04151  -0.02316  -0.00067  -0.00097
  79        5YZ         0.03739  -0.03616  -0.03739  -0.01536  -0.01413
  80 6   O  1S         -0.07601  -0.15113   0.09160   0.05097   0.04760
  81        2S          0.16167   0.33212  -0.20731  -0.11598  -0.10311
  82        2PX        -0.02820  -0.04879   0.02881  -0.03417  -0.04027
  83        2PY        -0.01085  -0.00505   0.01893   0.00496   0.00402
  84        2PZ        -0.07497  -0.11056   0.05585   0.00083  -0.04303
  85        3S          0.15834   0.31149  -0.18286  -0.13502  -0.16298
  86        3PX        -0.01390  -0.01607   0.00957  -0.01798  -0.01191
  87        3PY        -0.00166   0.00346   0.00805   0.00005  -0.00141
  88        3PZ        -0.03417  -0.03387   0.01503  -0.00107  -0.01382
  89        4XX        -0.00237  -0.00288   0.00018   0.00349   0.00399
  90        4YY        -0.00478  -0.00655   0.00206   0.00045   0.00157
  91        4ZZ         0.01163   0.00853  -0.00526   0.00033   0.00524
  92        4XY         0.00161   0.00066  -0.00115  -0.00015  -0.00023
  93        4XZ         0.00758   0.00854  -0.00425   0.00337   0.00328
  94        4YZ         0.00277   0.00049  -0.00231  -0.00048  -0.00018
  95 7   O  1S         -0.14146   0.12529   0.02342   0.04974   0.05162
  96        2S          0.30967  -0.28081  -0.05321  -0.11702  -0.11664
  97        2PX        -0.04271   0.03655   0.00633  -0.04300  -0.04388
  98        2PY         0.11276  -0.07510  -0.00130   0.00462   0.05210
  99        2PZ         0.08868  -0.05464  -0.02369  -0.00573   0.01727
 100        3S          0.25100  -0.22683  -0.04602  -0.11767  -0.16581
 101        3PX        -0.01270   0.00842   0.00259  -0.02278  -0.01562
 102        3PY         0.03030  -0.00710   0.00283   0.00751   0.01990
 103        3PZ         0.02167  -0.00453  -0.00895   0.00223   0.00729
 104        4XX        -0.00342   0.00110   0.00046   0.00227   0.00239
 105        4YY         0.00957  -0.00325   0.00142   0.00034   0.00453
 106        4ZZ         0.00396   0.00127  -0.00242  -0.00137   0.00071
 107        4XY        -0.00700   0.00490  -0.00030  -0.00450  -0.00399
 108        4XZ        -0.00593   0.00294   0.00112  -0.00301  -0.00222
 109        4YZ         0.01461  -0.00469  -0.00193   0.00007   0.00263
 110 8   O  1S         -0.05135  -0.05814  -0.19477   0.03888   0.03478
 111        2S          0.10442   0.12633   0.42936  -0.08946  -0.07394
 112        2PX        -0.00673  -0.00171  -0.00340  -0.04989  -0.06806
 113        2PY        -0.03329  -0.01217  -0.03937  -0.03801  -0.09558
 114        2PZ         0.02672   0.03516   0.07037  -0.00036   0.01417
 115        3S          0.12853   0.13816   0.46482  -0.10395  -0.12536
 116        3PX        -0.00688  -0.00347  -0.00066  -0.02808  -0.03395
 117        3PY        -0.02361  -0.01163  -0.02109  -0.01902  -0.04402
 118        3PZ         0.02045   0.02256   0.05072  -0.00461  -0.00056
 119        4XX        -0.00371  -0.00199  -0.00517   0.00115   0.00216
 120        4YY         0.00327   0.00218   0.00482   0.00038   0.00423
 121        4ZZ        -0.00003   0.00119   0.00143  -0.00116   0.00121
 122        4XY         0.00518   0.00386   0.01171   0.00005  -0.00015
 123        4XZ        -0.00102   0.00094   0.00363  -0.00456  -0.00556
 124        4YZ        -0.00535  -0.00186  -0.00236  -0.00346  -0.00685
 125 9   H  1S          0.01264   0.02318   0.06756  -0.03352  -0.04933
 126        2S          0.00466   0.01124   0.00763  -0.01491  -0.02879
                          21        22        23        24        25
                           O         O         O         O         O
     Eigenvalues --    -0.61549  -0.60758  -0.59475  -0.55017  -0.51120
   1 1   C  1S          0.01455   0.00005   0.01018  -0.00808  -0.00664
   2        2S         -0.03208   0.00066  -0.02337   0.02170   0.01875
   3        2PX        -0.01392  -0.07528  -0.19536   0.03565   0.01353
   4        2PY         0.32293   0.04766  -0.12943  -0.04866  -0.01980
   5        2PZ         0.10112  -0.32090   0.10818   0.03769  -0.01472
   6        3S         -0.04114   0.00054  -0.01840   0.00288   0.01419
   7        3PX        -0.00751  -0.02037  -0.06632   0.01832   0.02670
   8        3PY         0.08965   0.02287  -0.04287  -0.01340  -0.01402
   9        3PZ         0.02037  -0.10453   0.03532   0.01765  -0.00219
  10        4XX        -0.00273   0.00020   0.00663  -0.00335  -0.00358
  11        4YY         0.00923  -0.00784  -0.00099  -0.00104   0.00210
  12        4ZZ        -0.00523   0.00859  -0.00167   0.00153   0.00003
  13        4XY        -0.01192  -0.00136   0.00771   0.01014   0.01300
  14        4XZ        -0.00437   0.01223  -0.00775  -0.00789   0.01069
  15        4YZ         0.01192  -0.00176  -0.00511   0.00023   0.00092
  16 2   F  1S         -0.02086   0.05249  -0.00845  -0.00403   0.00164
  17        2S          0.03861  -0.09343   0.01648  -0.00211   0.00004
  18        2PX        -0.06925   0.13681  -0.14153   0.05115  -0.01837
  19        2PY         0.14259   0.04830  -0.06863  -0.05622  -0.05809
  20        2PZ        -0.12759   0.33751  -0.00959  -0.06530   0.06300
  21        3S          0.08761  -0.23317   0.03541   0.03764  -0.00788
  22        3PX        -0.04042   0.07482  -0.08844   0.04132  -0.01860
  23        3PY         0.08749   0.02930  -0.04106  -0.03885  -0.04096
  24        3PZ        -0.07279   0.19131  -0.00393  -0.03650   0.04284
  25        4XX        -0.00357   0.00910  -0.00511  -0.00134  -0.00148
  26        4YY        -0.00182   0.00719  -0.00113  -0.00550   0.00189
  27        4ZZ        -0.00766   0.02093   0.00201  -0.00764   0.00503
  28        4XY         0.00423   0.00136  -0.00184  -0.00074  -0.00009
  29        4XZ        -0.00421   0.00682  -0.00745   0.00235  -0.00021
  30        4YZ         0.00812   0.00255  -0.00346  -0.00310  -0.00276
  31 3   F  1S          0.04724  -0.01199  -0.00454  -0.00257  -0.00207
  32        2S         -0.08183   0.02098   0.01001   0.00057  -0.00561
  33        2PX         0.15789  -0.09688  -0.17454   0.05729   0.16618
  34        2PY        -0.28403   0.15621  -0.06916   0.01232   0.09588
  35        2PZ        -0.18201  -0.15841   0.09740   0.10346   0.02688
  36        3S         -0.21582   0.05515   0.01766   0.02026   0.03006
  37        3PX         0.08818  -0.05937  -0.11171   0.04072   0.11688
  38        3PY        -0.15756   0.09093  -0.04488   0.00297   0.05789
  39        3PZ        -0.10264  -0.09956   0.05988   0.06708   0.01302
  40        4XX         0.00940  -0.00412  -0.00525   0.00030   0.00155
  41        4YY         0.01526  -0.01040   0.00810  -0.00096  -0.00853
  42        4ZZ         0.01050   0.00618  -0.00319  -0.00557  -0.00508
  43        4XY        -0.00676   0.00691   0.00698  -0.00297  -0.00546
  44        4XZ        -0.00451  -0.00220   0.00628  -0.00017  -0.00255
  45        4YZ         0.00677   0.00674  -0.00193  -0.00372  -0.00076
  46 4   F  1S         -0.03589  -0.02506   0.03376   0.00666   0.00114
  47        2S          0.06662   0.04516  -0.05567  -0.00933  -0.00103
  48        2PX        -0.15924  -0.15326   0.04949   0.05360   0.02771
  49        2PY        -0.09293  -0.14983   0.23826   0.06332  -0.02351
  50        2PZ         0.18635  -0.04531  -0.12267  -0.02401  -0.08195
  51        3S          0.15314   0.11273  -0.15799  -0.03124  -0.00412
  52        3PX        -0.09330  -0.09091   0.01840   0.03049   0.01614
  53        3PY        -0.04895  -0.08511   0.14001   0.03992  -0.01698
  54        3PZ         0.10998  -0.03135  -0.06955  -0.01467  -0.05893
  55        4XX        -0.00929  -0.00914   0.00422   0.00187   0.00032
  56        4YY        -0.00329  -0.00866   0.01631   0.00402  -0.00178
  57        4ZZ        -0.00963   0.00085   0.00899   0.00261   0.00405
  58        4XY        -0.00432  -0.00784   0.00269   0.00290   0.00076
  59        4XZ         0.00757   0.00001  -0.00086  -0.00134  -0.00155
  60        4YZ         0.00549  -0.00222  -0.00562  -0.00052  -0.00241
  61 5   S  1S          0.00912   0.00629   0.02281  -0.02134  -0.00046
  62        2S         -0.03901  -0.02542  -0.09498   0.08798  -0.00023
  63        2PX        -0.04472  -0.04501  -0.09367   0.02065  -0.04623
  64        2PY        -0.04694  -0.03501  -0.03473  -0.11498  -0.10340
  65        2PZ         0.01761   0.04382   0.02794   0.09052  -0.10605
  66        3S          0.10492   0.07708   0.27318  -0.26526  -0.01464
  67        3PX         0.11624   0.11576   0.24177  -0.05338   0.12497
  68        3PY         0.12269   0.09139   0.09123   0.30245   0.27893
  69        3PZ        -0.04521  -0.11556  -0.07234  -0.24198   0.29072
  70        4S          0.01934  -0.01311   0.00403  -0.00842   0.01468
  71        4PX         0.01480   0.02370   0.04472  -0.00300   0.04474
  72        4PY         0.02720   0.00680   0.01372   0.05727   0.05991
  73        4PZ         0.00324  -0.01699  -0.00488  -0.05239   0.04717
  74        5XX        -0.01306  -0.00897  -0.01664   0.00526   0.01957
  75        5YY         0.00459  -0.00212  -0.00242  -0.00577  -0.00036
  76        5ZZ         0.00196   0.00753   0.00040   0.02897  -0.01250
  77        5XY        -0.01419   0.00261   0.01338   0.01165   0.00238
  78        5XZ        -0.01150   0.01456  -0.01443  -0.00984   0.00422
  79        5YZ        -0.00590  -0.01088  -0.01748  -0.01059  -0.00307
  80 6   O  1S          0.01885  -0.00291   0.04281  -0.07253   0.06502
  81        2S         -0.04022   0.00762  -0.09642   0.15677  -0.13364
  82        2PX         0.00509   0.04171   0.01780   0.07524  -0.07390
  83        2PY         0.02003   0.01540  -0.00033   0.12412   0.07179
  84        2PZ        -0.04522  -0.02230  -0.11813   0.18854  -0.24778
  85        3S         -0.07214   0.01539  -0.14534   0.28407  -0.29559
  86        3PX         0.00362   0.02343   0.00991   0.02949  -0.02836
  87        3PY         0.00774   0.00707  -0.00126   0.06504   0.04869
  88        3PZ        -0.01903  -0.01466  -0.05765   0.08573  -0.11032
  89        4XX        -0.00005  -0.00265  -0.00241  -0.00419   0.00482
  90        4YY         0.00017   0.00008  -0.00090  -0.00436   0.00258
  91        4ZZ         0.00600   0.00361   0.01238  -0.01516   0.02042
  92        4XY        -0.00148  -0.00101  -0.00059  -0.00449  -0.00371
  93        4XZ        -0.00001  -0.00253  -0.00012  -0.00650   0.00610
  94        4YZ        -0.00136  -0.00148  -0.00008  -0.00928  -0.00645
  95 7   O  1S          0.00873   0.01921   0.05087  -0.05576  -0.06801
  96        2S         -0.01828  -0.04321  -0.11584   0.12230   0.14054
  97        2PX         0.04877   0.01974   0.05234   0.04279   0.21301
  98        2PY         0.05490   0.07254   0.14635  -0.03270  -0.22764
  99        2PZ        -0.00397  -0.01147   0.05780  -0.27372  -0.12392
 100        3S         -0.02564  -0.06802  -0.17393   0.21742   0.31997
 101        3PX         0.02914   0.00954   0.02894   0.01498   0.10606
 102        3PY         0.02601   0.03453   0.07020  -0.00310  -0.10109
 103        3PZ        -0.00297  -0.00762   0.02408  -0.14071  -0.04051
 104        4XX        -0.00250  -0.00138  -0.00467  -0.00046  -0.00920
 105        4YY         0.00627   0.00782   0.01263   0.00426  -0.01427
 106        4ZZ        -0.00050  -0.00183   0.00177  -0.01991  -0.00475
 107        4XY         0.00207  -0.00003   0.00191  -0.00025   0.01498
 108        4XZ         0.00318   0.00263   0.00289   0.00774   0.00967
 109        4YZ         0.00115   0.00221   0.00798  -0.01335  -0.00691
 110 8   O  1S          0.02432   0.02046   0.03068   0.01129   0.03035
 111        2S         -0.05443  -0.04715  -0.06615  -0.01413  -0.06829
 112        2PX        -0.05390  -0.05346  -0.04350  -0.13527   0.03087
 113        2PY        -0.11446  -0.12256  -0.20666  -0.20164  -0.00702
 114        2PZ         0.01984   0.00462   0.03105  -0.03519   0.17104
 115        3S         -0.08397  -0.06574  -0.10294  -0.07597  -0.11806
 116        3PX        -0.03329  -0.03522  -0.02115  -0.07976   0.02300
 117        3PY        -0.06201  -0.06845  -0.11899  -0.10944   0.00478
 118        3PZ         0.00307  -0.00145   0.01133  -0.03850   0.10775
 119        4XX         0.00004  -0.00040  -0.00144   0.00369  -0.00125
 120        4YY         0.00306   0.00308   0.00902   0.00870  -0.00315
 121        4ZZ        -0.00006  -0.00153   0.00170  -0.00073   0.01326
 122        4XY        -0.00116  -0.00073  -0.00260  -0.00042  -0.00268
 123        4XZ        -0.00470  -0.00398  -0.00411  -0.00865   0.00101
 124        4YZ        -0.00715  -0.00730  -0.01335  -0.00855  -0.00341
 125 9   H  1S         -0.04787  -0.05266  -0.07248  -0.10203   0.04447
 126        2S         -0.03172  -0.02900  -0.04923  -0.06328   0.02377
                          26        27        28        29        30
                           O         O         O         O         O
     Eigenvalues --    -0.49609  -0.48766  -0.48209  -0.46219  -0.45553
   1 1   C  1S         -0.01440   0.00021  -0.01283  -0.00262   0.00069
   2        2S          0.04337   0.00033   0.03358   0.00532  -0.00306
   3        2PX         0.02100   0.01041   0.02312   0.02599  -0.01084
   4        2PY         0.00443   0.03809  -0.04562  -0.00517  -0.02793
   5        2PZ         0.00086  -0.07867  -0.01214   0.01385  -0.01772
   6        3S          0.01204  -0.00248   0.03998   0.01865   0.00939
   7        3PX         0.09571  -0.00653   0.07923  -0.00965  -0.02859
   8        3PY        -0.03831  -0.02187   0.05383  -0.05590   0.08332
   9        3PZ        -0.01042   0.05601   0.03489  -0.02811   0.04294
  10        4XX        -0.02306   0.00184  -0.01585   0.00626   0.00807
  11        4YY         0.01052  -0.02901  -0.00554   0.00065  -0.01358
  12        4ZZ         0.00422   0.02772   0.01601  -0.00521   0.00895
  13        4XY         0.01393  -0.00177  -0.00848  -0.00291   0.01545
  14        4XZ         0.00306  -0.00824  -0.00871  -0.00477   0.01022
  15        4YZ         0.01262   0.01987  -0.02561  -0.00403  -0.01513
  16 2   F  1S         -0.00043   0.00557  -0.00041  -0.00011   0.00022
  17        2S         -0.00352  -0.01084  -0.00589   0.00607   0.00282
  18        2PX         0.13593   0.25861   0.29706  -0.00476  -0.21654
  19        2PY        -0.15880  -0.11801   0.29676   0.01464   0.30892
  20        2PZ         0.00481   0.11404  -0.04500  -0.06910   0.19175
  21        3S          0.02091  -0.00463   0.03116  -0.02177   0.00349
  22        3PX         0.08764   0.18382   0.20446  -0.00515  -0.14243
  23        3PY        -0.10841  -0.08269   0.20546   0.01696   0.20084
  24        3PZ         0.01320   0.07753  -0.02123  -0.05228   0.12886
  25        4XX        -0.00096   0.00737   0.00313   0.00381  -0.00406
  26        4YY        -0.00244  -0.00493  -0.00391   0.00347  -0.00081
  27        4ZZ        -0.00027   0.00291  -0.00544  -0.00082   0.00963
  28        4XY        -0.00087  -0.00119   0.00358  -0.00097   0.00490
  29        4XZ         0.00543   0.01084   0.01080  -0.00070  -0.00438
  30        4YZ        -0.00649  -0.00407   0.01099   0.00261   0.00785
  31 3   F  1S         -0.00139   0.00011  -0.00127  -0.00133   0.00507
  32        2S         -0.00717   0.00025   0.00396  -0.01007  -0.00981
  33        2PX         0.42337  -0.08143  -0.12351  -0.09719   0.25369
  34        2PY         0.02204  -0.22457   0.07491   0.00981   0.23584
  35        2PZ         0.09480   0.41513  -0.00870  -0.09245   0.18627
  36        3S          0.04773  -0.00339  -0.00959   0.04093  -0.05605
  37        3PX         0.28476  -0.05642  -0.09750  -0.06167   0.16464
  38        3PY         0.00241  -0.15244   0.04866  -0.00043   0.16671
  39        3PZ         0.05850   0.28248  -0.00930  -0.06595   0.12861
  40        4XX         0.00334  -0.00145  -0.00462  -0.00693   0.00895
  41        4YY        -0.00533   0.01265   0.00046  -0.00575  -0.00772
  42        4ZZ        -0.00841  -0.01071   0.00520  -0.00316   0.00026
  43        4XY        -0.01390   0.00032   0.00513   0.00233  -0.00386
  44        4XZ        -0.00595   0.00562   0.00142  -0.00009  -0.00081
  45        4YZ        -0.00247  -0.00967  -0.00105   0.00268  -0.00902
  46 4   F  1S         -0.00100  -0.00601   0.00125   0.00139   0.00036
  47        2S         -0.00398   0.01259  -0.00864   0.01040   0.00226
  48        2PX         0.10356  -0.25973   0.31566  -0.00060  -0.14712
  49        2PY        -0.07985   0.02767   0.10980   0.02658   0.28465
  50        2PZ        -0.09021   0.19450   0.26462   0.00330   0.11515
  51        3S          0.02542   0.00611   0.02457  -0.03830   0.00144
  52        3PX         0.06689  -0.18461   0.22022  -0.00503  -0.09599
  53        3PY        -0.04537   0.02117   0.08229   0.01470   0.18780
  54        3PZ        -0.06779   0.13436   0.17813   0.01340   0.07216
  55        4XX        -0.00196  -0.00891   0.00714   0.00568  -0.00343
  56        4YY        -0.00578   0.00615   0.00162   0.00752   0.00986
  57        4ZZ         0.00159  -0.00178  -0.01317   0.00354  -0.00174
  58        4XY         0.00283  -0.00666   0.01091   0.00009   0.00191
  59        4XZ        -0.00366   0.00696  -0.00148   0.00035   0.00515
  60        4YZ        -0.00178   0.00555   0.00478   0.00076  -0.00260
  61 5   S  1S         -0.00453   0.00177  -0.00429   0.00461   0.00143
  62        2S          0.01749  -0.00837   0.01826  -0.01964  -0.00538
  63        2PX        -0.09651   0.00014  -0.05820   0.01135   0.01766
  64        2PY         0.04774  -0.00463  -0.00348  -0.03215   0.00886
  65        2PZ         0.05191  -0.01122  -0.00839   0.06929   0.01680
  66        3S         -0.05489   0.01850  -0.04987   0.05427   0.01948
  67        3PX         0.26560  -0.00132   0.16095  -0.03418  -0.05180
  68        3PY        -0.13140   0.01322   0.00657   0.08570  -0.02633
  69        3PZ        -0.14110   0.02831   0.02104  -0.18864  -0.04720
  70        4S         -0.03708   0.00865  -0.02812   0.00005   0.00071
  71        4PX         0.08846   0.00320   0.05460   0.01197  -0.01470
  72        4PY         0.02538   0.02887  -0.06871   0.10286   0.05920
  73        4PZ         0.01198  -0.05431  -0.03262   0.01398   0.04920
  74        5XX         0.01804   0.00071   0.02370   0.01338  -0.00889
  75        5YY        -0.00921  -0.00394  -0.01512   0.00913   0.01085
  76        5ZZ        -0.01974   0.00152  -0.00867  -0.02405  -0.00294
  77        5XY        -0.02107  -0.00137  -0.00455   0.02761  -0.01176
  78        5XZ        -0.01247   0.01310  -0.00190  -0.00046  -0.01259
  79        5YZ         0.00640   0.00917  -0.01455   0.07410   0.01431
  80 6   O  1S         -0.01408   0.00837   0.00684  -0.01494  -0.00642
  81        2S          0.03579  -0.02890  -0.01957   0.02866   0.01898
  82        2PX         0.15332  -0.01503   0.06050   0.10089  -0.02066
  83        2PY        -0.03156   0.01466  -0.02808   0.22926   0.02984
  84        2PZ         0.02461  -0.04404  -0.05918   0.06392   0.06801
  85        3S          0.03251   0.00189  -0.01220   0.06397   0.00309
  86        3PX         0.08859  -0.01361   0.03531   0.06488  -0.01422
  87        3PY        -0.02316   0.00470  -0.00901   0.14982   0.01231
  88        3PZ         0.01333  -0.02709  -0.03348   0.02055   0.04116
  89        4XX        -0.00541  -0.00349  -0.00485  -0.00568   0.00395
  90        4YY         0.00230  -0.00422  -0.00195  -0.00221   0.00230
  91        4ZZ         0.00475  -0.00230   0.00459  -0.00283  -0.00279
  92        4XY         0.00005  -0.00036  -0.00001  -0.00575  -0.00079
  93        4XZ        -0.01054   0.00156  -0.00369  -0.00724   0.00101
  94        4YZ         0.00380  -0.00077   0.00080  -0.01607  -0.00103
  95 7   O  1S          0.03991  -0.00177  -0.00061   0.01142   0.00356
  96        2S         -0.08835   0.00426   0.01650  -0.03192  -0.01538
  97        2PX         0.09090  -0.00503   0.13848  -0.11642  -0.03025
  98        2PY         0.20455  -0.01066   0.00923   0.15997   0.05115
  99        2PZ         0.14102  -0.00725   0.01453  -0.05377   0.03817
 100        3S         -0.16782   0.00278  -0.05402  -0.01053   0.02276
 101        3PX         0.05737  -0.00793   0.08924  -0.08235  -0.01544
 102        3PY         0.09615  -0.01181   0.00401   0.08408   0.02940
 103        3PZ         0.06337   0.00513   0.00058  -0.03738   0.02397
 104        4XX        -0.00676   0.00076  -0.00024   0.00169  -0.00358
 105        4YY         0.01204  -0.00207   0.00893   0.00679  -0.00143
 106        4ZZ         0.00419   0.00069   0.00785  -0.01449  -0.00273
 107        4XY         0.00405  -0.00043   0.00852  -0.00862  -0.00212
 108        4XZ         0.00438   0.00014   0.00694  -0.00142  -0.00196
 109        4YZ         0.01112   0.00025   0.00271   0.00059   0.00178
 110 8   O  1S          0.00468   0.00799   0.00238   0.06142   0.00279
 111        2S         -0.00763  -0.00858  -0.01104  -0.13359  -0.00549
 112        2PX         0.09749   0.03852   0.04536   0.18417  -0.02379
 113        2PY        -0.01426   0.03973  -0.03278   0.10444   0.03928
 114        2PZ        -0.01064   0.03864  -0.00147   0.33264   0.01822
 115        3S         -0.03444  -0.06353   0.00859  -0.27092  -0.01804
 116        3PX         0.06192   0.03003   0.02429   0.13106  -0.01727
 117        3PY        -0.00323   0.03450  -0.02446   0.07480   0.02571
 118        3PZ        -0.01308   0.02474   0.00108   0.21739   0.00535
 119        4XX         0.00085   0.00372  -0.00227   0.00107   0.00096
 120        4YY         0.00305   0.00171  -0.00143  -0.00250  -0.00053
 121        4ZZ        -0.00071   0.00766  -0.00218   0.02808   0.00103
 122        4XY        -0.00383   0.00000  -0.00236  -0.00154   0.00103
 123        4XZ         0.00581   0.00296   0.00289   0.01250  -0.00150
 124        4YZ         0.00091   0.00155  -0.00203   0.00350   0.00238
 125 9   H  1S          0.02045   0.03479  -0.00055   0.18662   0.01264
 126        2S          0.01278   0.02312   0.00863   0.16044   0.00713
                          31        32        33        34        35
                           O         O         O         O         O
     Eigenvalues --    -0.44623  -0.43030  -0.40399  -0.38763  -0.37011
   1 1   C  1S          0.00064   0.00007  -0.00087  -0.04104  -0.01987
   2        2S         -0.00051  -0.00072  -0.00106   0.07619   0.03243
   3        2PX        -0.00802  -0.00031   0.00556   0.22019   0.09551
   4        2PY        -0.01878   0.00551  -0.00037  -0.02069  -0.01082
   5        2PZ         0.02710  -0.01288  -0.00076   0.00773   0.00206
   6        3S         -0.00420   0.00133   0.02101   0.30056   0.17404
   7        3PX         0.00174  -0.00187   0.00961   0.07741   0.04980
   8        3PY         0.04699  -0.01551   0.02278   0.02237  -0.04325
   9        3PZ        -0.04816   0.04224  -0.07698   0.02927  -0.01488
  10        4XX         0.00325  -0.00089   0.00091   0.02532   0.00869
  11        4YY         0.00414  -0.00441  -0.00137  -0.01228  -0.00404
  12        4ZZ        -0.00672   0.00507   0.00047  -0.01295  -0.00641
  13        4XY         0.01298  -0.00247   0.00190  -0.00342  -0.00637
  14        4XZ        -0.01954   0.00421  -0.00256   0.00307  -0.00195
  15        4YZ        -0.00412   0.00302   0.00034   0.00003   0.00030
  16 2   F  1S          0.00117  -0.00194   0.00189   0.00188   0.00258
  17        2S         -0.00491   0.00346   0.01448  -0.00043   0.00085
  18        2PX         0.30239  -0.10543   0.00226  -0.12350  -0.09266
  19        2PY        -0.05817  -0.42086  -0.03058  -0.01502   0.04830
  20        2PZ        -0.26427   0.12610  -0.00917  -0.04064  -0.01203
  21        3S         -0.01549   0.02044  -0.05836  -0.02616  -0.03674
  22        3PX         0.20246  -0.06631  -0.00477  -0.09530  -0.07012
  23        3PY        -0.04720  -0.28209  -0.02480  -0.01360   0.03795
  24        3PZ        -0.18184   0.08904  -0.01965  -0.03631  -0.01816
  25        4XX         0.00817  -0.00323   0.00806   0.00214   0.00275
  26        4YY         0.00071  -0.00243   0.00780   0.00184   0.00261
  27        4ZZ        -0.01272   0.00534   0.00684  -0.00069   0.00168
  28        4XY         0.00018  -0.00745  -0.00002   0.00003  -0.00042
  29        4XZ         0.00506  -0.00044  -0.00078  -0.00251  -0.00212
  30        4YZ        -0.00394  -0.01009  -0.00174  -0.00165   0.00240
  31 3   F  1S          0.00090   0.00038  -0.00041   0.00603  -0.00129
  32        2S         -0.00041  -0.00020  -0.00626   0.00673   0.00297
  33        2PX         0.05860   0.02554  -0.02934  -0.18086   0.02145
  34        2PY         0.15349   0.12145  -0.01552   0.03092   0.02165
  35        2PZ        -0.21726  -0.21442   0.01592  -0.01046   0.00555
  36        3S         -0.01150  -0.00421   0.01647  -0.09159   0.00885
  37        3PX         0.03737   0.01638  -0.01713  -0.13850   0.00964
  38        3PY         0.09937   0.08362  -0.01778   0.04032   0.01473
  39        3PZ        -0.13388  -0.14638   0.02009   0.00033   0.00399
  40        4XX         0.00251   0.00093  -0.00309   0.00901   0.00067
  41        4YY        -0.00406  -0.00519  -0.00075   0.00635  -0.00083
  42        4ZZ         0.00331   0.00504  -0.00572   0.00859   0.00022
  43        4XY         0.00215   0.00169   0.00092   0.00352  -0.00146
  44        4XZ        -0.00577  -0.00428  -0.00029   0.00185  -0.00037
  45        4YZ         0.00190   0.00397  -0.00165  -0.00041  -0.00056
  46 4   F  1S         -0.00136   0.00149  -0.00138   0.00277   0.00262
  47        2S          0.00440  -0.00349  -0.01108  -0.00209   0.00158
  48        2PX        -0.29779   0.05668   0.00559  -0.17862  -0.10148
  49        2PY         0.34520   0.15512   0.00999  -0.01717   0.02446
  50        2PZ        -0.12690   0.44568   0.01756  -0.02340   0.02343
  51        3S          0.02299  -0.01522   0.04292  -0.03507  -0.03918
  52        3PX        -0.19814   0.03417   0.00913  -0.13395  -0.07801
  53        3PY         0.24086   0.10106   0.01732  -0.02311   0.01147
  54        3PZ        -0.08618   0.30078   0.01336  -0.01525   0.02579
  55        4XX        -0.01057   0.00161  -0.00579   0.00072   0.00242
  56        4YY         0.01332   0.00488  -0.00436  -0.00068   0.00415
  57        4ZZ         0.00076  -0.00759  -0.00752   0.00297   0.00129
  58        4XY        -0.00055   0.00417   0.00065  -0.00380  -0.00190
  59        4XZ         0.00148   0.00837  -0.00004   0.00177   0.00162
  60        4YZ        -0.00781   0.00733   0.00124  -0.00018   0.00084
  61 5   S  1S          0.00049  -0.00016  -0.00230   0.00220   0.00119
  62        2S         -0.00261   0.00081   0.00938  -0.00484  -0.00168
  63        2PX        -0.00267   0.00008  -0.00075   0.03529   0.01897
  64        2PY         0.00809   0.00005  -0.00262  -0.00892   0.00389
  65        2PZ        -0.01533   0.00081   0.02013   0.01047   0.00150
  66        3S          0.00506  -0.00169  -0.03155   0.03497   0.01941
  67        3PX         0.00628  -0.00006   0.00049  -0.11485  -0.05962
  68        3PY        -0.02383   0.00067   0.01039   0.02573  -0.00955
  69        3PZ         0.04440  -0.00294  -0.05878  -0.03133  -0.00447
  70        4S          0.00223  -0.00424   0.01369   0.00409  -0.00552
  71        4PX         0.00062   0.00091   0.02354   0.13132   0.11891
  72        4PY         0.02149  -0.00363  -0.03637  -0.01585  -0.13000
  73        4PZ        -0.06277   0.00824   0.12615   0.02933  -0.05681
  74        5XX        -0.00396  -0.00049   0.00669   0.10611   0.06455
  75        5YY        -0.00243  -0.00324   0.11736  -0.04208  -0.02419
  76        5ZZ         0.00371   0.00416  -0.11908  -0.04737  -0.02456
  77        5XY        -0.00903   0.00045  -0.01111  -0.07355   0.06277
  78        5XZ         0.01713  -0.00516   0.02069  -0.06437   0.05112
  79        5YZ        -0.00184  -0.00224  -0.05112  -0.04444  -0.06174
  80 6   O  1S          0.00437  -0.00004  -0.01392  -0.00948  -0.00172
  81        2S         -0.01671   0.00112   0.03871   0.02175   0.00090
  82        2PX        -0.00423  -0.01254   0.22745   0.04093   0.28402
  83        2PY        -0.03111  -0.00848   0.00132  -0.09939  -0.19303
  84        2PZ        -0.05211   0.01026   0.13884   0.20005  -0.08082
  85        3S          0.01278  -0.00354  -0.00239   0.01011   0.02117
  86        3PX        -0.00440  -0.00902   0.16390   0.00647   0.19011
  87        3PY        -0.02903  -0.00725   0.00953  -0.07511  -0.11973
  88        3PZ        -0.03256   0.00782   0.07558   0.13030  -0.05767
  89        4XX        -0.00367   0.00129  -0.00432   0.00695  -0.01235
  90        4YY        -0.00264   0.00042   0.00872   0.00339   0.00038
  91        4ZZ        -0.00022  -0.00066   0.00500  -0.00790   0.00668
  92        4XY         0.00071   0.00060  -0.00168   0.00198   0.00552
  93        4XZ         0.00109   0.00047  -0.01113  -0.00144  -0.01585
  94        4YZ         0.00293   0.00052  -0.00027   0.00676   0.01042
  95 7   O  1S          0.00023  -0.00015  -0.00195  -0.00227   0.00311
  96        2S          0.00074  -0.00151  -0.00032   0.00988  -0.00151
  97        2PX        -0.00540   0.00617  -0.00248   0.46481  -0.16462
  98        2PY        -0.02120   0.00941  -0.28667   0.06805  -0.21466
  99        2PZ         0.01490  -0.01000   0.34210   0.04198  -0.11219
 100        3S         -0.00993   0.00550   0.02684  -0.00994  -0.07091
 101        3PX        -0.00576   0.00271  -0.01135   0.31377  -0.13414
 102        3PY        -0.02043   0.00989  -0.19375   0.05220  -0.13277
 103        3PZ         0.01896  -0.00958   0.23013   0.02478  -0.07346
 104        4XX         0.00077  -0.00081  -0.00050  -0.01320   0.01633
 105        4YY        -0.00266   0.00048  -0.02676   0.01211  -0.00476
 106        4ZZ         0.00326  -0.00165   0.02321   0.00605   0.00235
 107        4XY        -0.00061  -0.00006   0.00471   0.02157  -0.00886
 108        4XZ        -0.00015   0.00051  -0.00830   0.01753  -0.00904
 109        4YZ         0.00080  -0.00018   0.00721   0.00642  -0.00835
 110 8   O  1S         -0.00275  -0.00211   0.00555   0.00928   0.00179
 111        2S          0.01197   0.00405  -0.01986  -0.02018  -0.00509
 112        2PX        -0.03312   0.00693  -0.24481   0.11835   0.33956
 113        2PY         0.04192  -0.01396  -0.06590   0.02918  -0.24482
 114        2PZ        -0.03059  -0.01026   0.23687  -0.00661  -0.03990
 115        3S         -0.01474   0.01239   0.02800  -0.04610   0.01050
 116        3PX        -0.02517   0.00596  -0.18812   0.07630   0.23766
 117        3PY         0.04022  -0.00985  -0.04851   0.02149  -0.17557
 118        3PZ        -0.01937  -0.00457   0.17536  -0.01871  -0.01928
 119        4XX         0.00360  -0.00067  -0.00372   0.00433  -0.00014
 120        4YY        -0.00010   0.00062  -0.00864   0.00209   0.00570
 121        4ZZ         0.00070  -0.00117   0.00996  -0.00268  -0.00450
 122        4XY         0.00086  -0.00048   0.00513  -0.00146  -0.00559
 123        4XZ        -0.00138  -0.00030  -0.01182   0.00429   0.01535
 124        4YZ         0.00209  -0.00040  -0.01043   0.00433  -0.00981
 125 9   H  1S         -0.00501  -0.00661  -0.02301   0.04403   0.00536
 126        2S         -0.00611  -0.00644  -0.02008   0.02945   0.01050
                          36        37        38        39        40
                           O         O         V         V         V
     Eigenvalues --    -0.35719  -0.34360  -0.06321  -0.03015   0.00344
   1 1   C  1S         -0.02132  -0.01414   0.03953   0.06642  -0.10796
   2        2S          0.03873   0.02800  -0.09005  -0.15067   0.25898
   3        2PX         0.10444   0.06631  -0.11327  -0.24469   0.23547
   4        2PY        -0.01138  -0.00827   0.09157  -0.18015  -0.20780
   5        2PZ         0.00174   0.00361  -0.09961   0.15186  -0.02817
   6        3S          0.15525   0.09266  -0.27065  -0.49480   0.69451
   7        3PX         0.04570   0.02400  -0.08349  -0.25075   0.16895
   8        3PY         0.00808  -0.04433   0.19366  -0.24885  -0.23356
   9        3PZ        -0.04579   0.01739  -0.11810   0.18743  -0.03865
  10        4XX         0.01008   0.00522   0.00468  -0.00266  -0.01974
  11        4YY        -0.00510  -0.00327   0.00458   0.00749   0.00111
  12        4ZZ        -0.00588  -0.00307  -0.00105   0.00978  -0.00727
  13        4XY        -0.00121  -0.00170   0.01031  -0.03014  -0.01889
  14        4XZ        -0.00379   0.00249  -0.01574   0.01962  -0.00590
  15        4YZ         0.00059  -0.00049   0.00026   0.00577   0.00525
  16 2   F  1S          0.00488   0.00053   0.00639  -0.02054   0.02009
  17        2S          0.00100   0.00107  -0.01396   0.03400  -0.04938
  18        2PX        -0.12659  -0.01798  -0.03037   0.12669  -0.10714
  19        2PY        -0.00543  -0.00027  -0.03313   0.06365   0.05119
  20        2PZ        -0.00848  -0.00883  -0.01202   0.09404  -0.10401
  21        3S         -0.06345  -0.00725  -0.04847   0.17557  -0.13887
  22        3PX        -0.09659  -0.01607  -0.02218   0.12416  -0.09033
[...]
 125 9   H  1S         -0.00000   0.00006  -0.00001  -0.00000   0.00000
 126        2S         -0.00009   0.00130  -0.00025   0.00000   0.00003
                         106       107       108       109       110
 106        4ZZ         0.00319
 107        4XY        -0.00000   0.00231
 108        4XZ        -0.00000   0.00000   0.00165
 109        4YZ         0.00000   0.00000   0.00000   0.00172
 110 8   O  1S         -0.00000  -0.00000  -0.00000  -0.00000   2.07941
 111        2S          0.00000   0.00000   0.00000   0.00000  -0.04343
 112        2PX         0.00000   0.00000   0.00000  -0.00000   0.00000
 113        2PY         0.00000   0.00000   0.00000   0.00000   0.00000
 114        2PZ         0.00000  -0.00000  -0.00000   0.00000   0.00000
 115        3S          0.00012   0.00000   0.00000  -0.00000  -0.04387
 116        3PX         0.00000   0.00001   0.00000  -0.00000   0.00000
 117        3PY         0.00017   0.00000   0.00000   0.00000   0.00000
 118        3PZ        -0.00000  -0.00000  -0.00000   0.00001   0.00000
 119        4XX        -0.00000  -0.00000   0.00000   0.00000  -0.00043
 120        4YY        -0.00000  -0.00000  -0.00000   0.00000  -0.00058
 121        4ZZ        -0.00000  -0.00000   0.00000  -0.00000  -0.00039
 122        4XY        -0.00000   0.00000  -0.00000  -0.00000   0.00000
 123        4XZ        -0.00000  -0.00000  -0.00000   0.00000  -0.00000
 124        4YZ        -0.00000   0.00000  -0.00000   0.00000  -0.00000
 125 9   H  1S         -0.00000  -0.00000   0.00000   0.00000  -0.00017
 126        2S         -0.00001  -0.00000   0.00000   0.00000   0.00036
                         111       112       113       114       115
 111        2S          0.52230
 112        2PX         0.00000   0.70744
 113        2PY         0.00000   0.00000   0.59599
 114        2PZ         0.00000  -0.00000   0.00000   0.65409
 115        3S          0.47517   0.00000   0.00000   0.00000   0.80951
 116        3PX         0.00000   0.25218   0.00000  -0.00000   0.00000
 117        3PY         0.00000   0.00000   0.19755  -0.00000   0.00000
 118        3PZ         0.00000  -0.00000   0.00000   0.22511   0.00000
 119        4XX        -0.00335   0.00000   0.00000   0.00000  -0.00660
 120        4YY         0.00204   0.00000   0.00000   0.00000   0.00156
 121        4ZZ        -0.00521   0.00000   0.00000   0.00000  -0.01238
 122        4XY        -0.00000   0.00000   0.00000   0.00000  -0.00000
 123        4XZ         0.00000   0.00000   0.00000   0.00000   0.00000
 124        4YZ         0.00000   0.00000   0.00000   0.00000   0.00000
 125 9   H  1S          0.00398   0.01054   0.01219   0.01702   0.00301
 126        2S         -0.00575   0.00749   0.00901   0.01200  -0.02933
                         116       117       118       119       120
 116        3PX         0.35998
 117        3PY         0.00000   0.26680
 118        3PZ        -0.00000  -0.00000   0.31079
 119        4XX         0.00000   0.00000   0.00000   0.00053
 120        4YY         0.00000   0.00000   0.00000   0.00005   0.00096
 121        4ZZ         0.00000   0.00000   0.00000  -0.00000  -0.00011
 122        4XY         0.00000   0.00000   0.00000   0.00000   0.00000
 123        4XZ         0.00000   0.00000   0.00000  -0.00000   0.00000
 124        4YZ         0.00000   0.00000   0.00000   0.00000  -0.00000
 125 9   H  1S          0.02325   0.02498   0.04026  -0.00019  -0.00067
 126        2S          0.01726   0.01979   0.02908  -0.00001  -0.00105
                         121       122       123       124       125
 121        4ZZ         0.00269
 122        4XY        -0.00000   0.00068
 123        4XZ         0.00000  -0.00000   0.00179
 124        4YZ        -0.00000   0.00000  -0.00000   0.00178
 125 9   H  1S          0.00244   0.00028   0.00161   0.00127   0.15134
 126        2S          0.00346   0.00002   0.00037   0.00031   0.07017
                         126
 126        2S          0.08164
     Gross orbital populations:
                           1
   1 1   C  1S          1.99222
   2        2S          0.72292
   3        2PX         0.66298
   4        2PY         0.53904
   5        2PZ         0.53176
   6        3S          0.37625
   7        3PX         0.18523
   8        3PY         0.12919
   9        3PZ         0.13486
  10        4XX         0.01505
  11        4YY         0.00658
  12        4ZZ         0.00413
  13        4XY         0.02265
  14        4XZ         0.02001
  15        4YZ         0.03045
  16 2   F  1S          1.99335
  17        2S          0.95538
  18        2PX         1.13442
  19        2PY         1.19177
  20        2PZ         0.95475
  21        3S          0.98299
  22        3PX         0.69709
  23        3PY         0.71852
  24        3PZ         0.56938
  25        4XX         0.01007
  26        4YY         0.00571
  27        4ZZ         0.02986
  28        4XY         0.00065
  29        4XZ         0.00498
  30        4YZ         0.00278
  31 3   F  1S          1.99331
  32        2S          0.95722
  33        2PX         1.14693
  34        2PY         1.00327
  35        2PZ         1.14419
  36        3S          0.96678
  37        3PX         0.69219
  38        3PY         0.57967
  39        3PZ         0.67606
  40        4XX         0.01057
  41        4YY         0.02573
  42        4ZZ         0.01112
  43        4XY         0.00441
  44        4XZ         0.00154
  45        4YZ         0.00496
  46 4   F  1S          1.99335
  47        2S          0.95506
  48        2PX         1.09778
  49        2PY         1.04377
  50        2PZ         1.13769
  51        3S          0.98472
  52        3PX         0.67980
  53        3PY         0.62962
  54        3PZ         0.68605
  55        4XX         0.01292
  56        4YY         0.01961
  57        4ZZ         0.01026
  58        4XY         0.00433
  59        4XZ         0.00222
  60        4YZ         0.00389
  61 5   S  1S          1.99861
  62        2S          1.98811
  63        2PX         1.98866
  64        2PY         1.98859
  65        2PZ         1.98887
  66        3S          1.34193
  67        3PX         0.90403
  68        3PY         0.83613
  69        3PZ         0.85822
  70        4S         -0.04805
  71        4PX         0.15838
  72        4PY         0.15449
  73        4PZ         0.10804
  74        5XX         0.07266
  75        5YY         0.06478
  76        5ZZ         0.08169
  77        5XY         0.08158
  78        5XZ         0.10700
  79        5YZ         0.15545
  80 6   O  1S          1.99269
  81        2S          0.93107
  82        2PX         0.95328
  83        2PY         1.01349
  84        2PZ         0.87438
  85        3S          1.00638
  86        3PX         0.61684
  87        3PY         0.65994
  88        3PZ         0.42698
  89        4XX        -0.00591
  90        4YY        -0.01022
  91        4ZZ         0.01124
  92        4XY         0.00184
  93        4XZ         0.00908
  94        4YZ         0.00756
  95 7   O  1S          1.99253
  96        2S          0.93574
  97        2PX         0.98072
  98        2PY         0.95122
  99        2PZ         0.96438
 100        3S          0.93107
 101        3PX         0.60237
 102        3PY         0.46284
 103        3PZ         0.52026
 104        4XX        -0.00332
 105        4YY         0.00835
 106        4ZZ         0.00301
 107        4XY         0.00786
 108        4XZ         0.00558
 109        4YZ         0.00908
 110 8   O  1S          1.99276
 111        2S          0.92246
 112        2PX         0.99666
 113        2PY         0.86270
 114        2PZ         0.93334
 115        3S          1.04213
 116        3PX         0.68940
 117        3PY         0.54485
 118        3PZ         0.62982
 119        4XX        -0.00813
 120        4YY         0.00789
 121        4ZZ        -0.00468
 122        4XY         0.00205
 123        4XZ         0.00497
 124        4YZ         0.00797
 125 9   H  1S          0.36152
 126        2S          0.22075
          Condensed to atoms (all electrons):
               1          2          3          4          5          6
     1  C    4.748018   0.201686   0.218592   0.209254   0.084979  -0.030103
     2  F    0.201686   9.102767  -0.030112  -0.032858   0.010765   0.000190
     3  F    0.218592  -0.030112   9.053595  -0.031662   0.008146  -0.000310
     4  F    0.209254  -0.032858  -0.031662   9.108797   0.007386  -0.000047
     5  S    0.084979   0.010765   0.008146   0.007386  13.619100   0.435965
     6  O   -0.030103   0.000190  -0.000310  -0.000047   0.435965   8.177027
     7  O   -0.038496  -0.000339   0.000220   0.000039   0.503160  -0.044230
     8  O   -0.021554  -0.000383  -0.000351   0.000174   0.157348  -0.051691
     9  H    0.000932   0.000001  -0.000176  -0.000004   0.002314   0.001853
               7          8          9
     1  C   -0.038496  -0.021554   0.000932
     2  F   -0.000339  -0.000383   0.000001
     3  F    0.000220  -0.000351  -0.000176
     4  F    0.000039   0.000174  -0.000004
     5  S    0.503160   0.157348   0.002314
     6  O   -0.044230  -0.051691   0.001853
     7  O    8.001584  -0.051502   0.001242
     8  O   -0.051502   8.389342   0.202803
     9  H    0.001242   0.202803   0.373312
 Mulliken charges:
               1
     1  C    0.626693
     2  F   -0.251716
     3  F   -0.217942
     4  F   -0.261079
     5  S    1.170838
     6  O   -0.488654
     7  O   -0.371678
     8  O   -0.624185
     9  H    0.417724
 Sum of Mulliken charges =  -0.00000
 Mulliken charges with hydrogens summed into heavy atoms:
               1
     1  C    0.626693
     2  F   -0.251716
     3  F   -0.217942
     4  F   -0.261079
     5  S    1.170838
     6  O   -0.488654
     7  O   -0.371678
     8  O   -0.206461
 Electronic spatial extent (au):  <R**2>=            912.5036
 Charge=             -0.0000 electrons
 Dipole moment (field-independent basis, Debye):
    X=              0.1875    Y=              2.2075    Z=              0.4204  Tot=              2.2550
 Quadrupole moment (field-independent basis, Debye-Ang):
   XX=            -48.0660   YY=            -46.5363   ZZ=            -53.9373
   XY=              5.1053   XZ=              0.1503   YZ=              0.7722
 Traceless Quadrupole moment (field-independent basis, Debye-Ang):
   XX=              1.4472   YY=              2.9769   ZZ=             -4.4241
   XY=              5.1053   XZ=              0.1503   YZ=              0.7722
 Octapole moment (field-independent basis, Debye-Ang**2):
  XXX=             -9.0666  YYY=             12.5226  ZZZ=             -3.0757  XYY=              2.9924
  XXY=             13.5543  XXZ=              0.2876  XZZ=            -11.8597  YZZ=             -0.1673
  YYZ=              4.0647  XYZ=              1.1349
 Hexadecapole moment (field-independent basis, Debye-Ang**3):
 XXXX=           -482.5552 YYYY=           -196.9483 ZZZZ=           -214.5081 XXXY=             25.0755
 XXXZ=              0.4354 YYYX=             25.7604 YYYZ=              2.5895 ZZZX=             -4.8243
 ZZZY=              2.1420 XXYY=            -99.8088 XXZZ=           -129.4586 YYZZ=            -73.5711
 XXYZ=              3.5411 YYXZ=              5.8732 ZZXY=             -0.8767
 N-N= 5.512912980868D+02 E-N=-3.381318525551D+03  KE= 9.558218994851D+02
 Orbital energies and kinetic energies (alpha):
                                 1                 2
   1         O               -89.172719        120.981346
   2         O               -24.783901         37.083398
   3         O               -24.761543         37.084206
   4         O               -24.759157         37.084301
   5         O               -19.239125         29.032893
   6         O               -19.210148         29.024305
   7         O               -19.195375         29.028607
   8         O               -10.501128         15.902424
   9         O                -8.199655         18.522392
  10         O                -6.164571         17.520877
  11         O                -6.163311         17.507906
  12         O                -6.162855         17.515406
  13         O                -1.325586          3.322286
  14         O                -1.249702          3.803607
  15         O                -1.228234          3.858251
  16         O                -1.199765          2.813611
  17         O                -1.073041          2.924251
  18         O                -1.023278          2.818770
  19         O                -0.793728          2.544458
  20         O                -0.681126          2.920418
  21         O                -0.615493          2.729863
  22         O                -0.607582          2.629952
  23         O                -0.594753          2.569104
  24         O                -0.550167          2.517375
  25         O                -0.511203          2.682603
  26         O                -0.496092          2.889107
  27         O                -0.487663          3.179391
  28         O                -0.482090          3.028754
  29         O                -0.462194          2.130015
  30         O                -0.455533          3.314810
  31         O                -0.446229          3.368765
  32         O                -0.430299          3.506210
  33         O                -0.403992          2.276758
  34         O                -0.387630          2.504480
  35         O                -0.370108          2.380177
  36         O                -0.357193          2.431263
  37         O                -0.343602          2.478610
  38         V                -0.063215          1.970090
  39         V                -0.030147          2.855391
  40         V                 0.003438          3.596167
  41         V                 0.018362          2.755230
  42         V                 0.088926          3.577201
  43         V                 0.116849          3.097924
  44         V                 0.139492          3.848104
  45         V                 0.191961          3.035788
  46         V                 0.284671          2.148362
  47         V                 0.311153          1.933915
  48         V                 0.338594          2.188124
  49         V                 0.399750          2.778498
  50         V                 0.458324          2.500548
  51         V                 0.496179          2.529985
  52         V                 0.518091          2.403866
  53         V                 0.646006          2.178127
  54         V                 0.668516          2.744511
  55         V                 0.689402          2.531494
  56         V                 0.751705          2.587377
  57         V                 0.763751          2.565238
  58         V                 0.798567          2.773815
  59         V                 0.859424          3.090864
  60         V                 0.873861          2.646585
  61         V                 0.927825          3.051866
  62         V                 0.967246          3.288542
  63         V                 0.976946          3.300292
  64         V                 0.999062          3.626299
  65         V                 1.012505          3.685251
  66         V                 1.034432          3.390717
  67         V                 1.081211          3.572695
  68         V                 1.096711          3.689322
  69         V                 1.100508          3.791195
  70         V                 1.128887          3.689730
  71         V                 1.169192          3.520388
  72         V                 1.185434          3.533444
  73         V                 1.219516          4.656137
  74         V                 1.271161          3.254324
  75         V                 1.289403          4.397467
  76         V                 1.324092          3.802752
  77         V                 1.346355          2.915126
  78         V                 1.351385          2.916160
  79         V                 1.359439          3.461945
  80         V                 1.379948          3.737068
  81         V                 1.523179          3.123191
  82         V                 1.549966          2.952744
  83         V                 1.577121          3.470145
  84         V                 1.600725          3.406924
  85         V                 1.686765          3.155145
  86         V                 1.712477          2.901275
  87         V                 1.734251          2.977930
  88         V                 1.749857          3.032402
  89         V                 1.769066          3.013513
  90         V                 1.784419          3.001008
  91         V                 1.788332          2.990686
  92         V                 1.797512          2.964411
  93         V                 1.813751          3.159761
  94         V                 1.825099          2.935819
  95         V                 1.832507          3.192167
  96         V                 1.863144          3.180339
  97         V                 1.905044          3.258277
  98         V                 1.922531          3.401831
  99         V                 1.945770          3.673688
 100         V                 1.972680          3.498743
 101         V                 1.988700          3.613990
 102         V                 2.010693          3.661465
 103         V                 2.051058          3.733959
 104         V                 2.091976          3.579810
 105         V                 2.115644          3.665265
 106         V                 2.142012          3.635265
 107         V                 2.174414          3.674558
 108         V                 2.183344          3.888141
 109         V                 2.292104          3.937846
 110         V                 2.383096          4.594153
 111         V                 2.581384          4.025423
 112         V                 2.618462          4.048975
 113         V                 2.640351          4.332799
 114         V                 2.728615          4.834950
 115         V                 2.817145          5.169764
 116         V                 2.855778          6.181549
 117         V                 3.003896          5.773620
 118         V                 3.024970          5.712469
 119         V                 3.548348          9.975875
 120         V                 3.844841         10.754718
 121         V                 3.860229         11.587924
 122         V                 3.939462         11.712222
 123         V                 4.244878         11.623813
 124         V                 4.293734         10.399147
 125         V                 4.341607         11.574827
 126         V                 5.067126         13.937396
 Total kinetic energy from orbitals= 9.558218994851D+02
 Unable to Open any file for archive entry.
 1\1\GINC-SPARTAN-BM162\SP\RB3LYP\6-31G(d)\C1H1F3O3S1\AKHALILOV\20-Mar-
 2025\0\\# B3LYP/6-31G(d) pop=full density=current\\PFMS Time step 30\\
 0,1\C,0,-0.91453,0.021578,-0.223989\F,0,-1.058628,0.164253,-1.618829\F
 ,0,-1.580739,1.050099,0.354862\F,0,-1.673683,-1.144939,0.061512\S,0,0.
 854643,-0.173505,0.26895\O,0,1.01662,-0.177749,1.726777\O,0,1.535711,-
 1.052546,-0.538665\O,0,1.435012,1.35551,-0.181854\H,0,1.799442,1.95156
 8,0.832207\\Version=ES64L-G16RevC.01\State=1-A\HF=-961.9343206\RMSD=5.
 099e-09\Dipole=-0.0433133,0.835236,0.2959977\Quadrupole=0.1530238,2.21
 23057,-2.3653295,3.1578178,1.5338956,2.367631\PG=C01 [X(C1H1F3O3S1)]\\
 @
 The archive entry for this job was punched.


 ... IT IS NO ONE DREAME THAT
     CAN PLEASE THESE ALL ...

                -- BEN JONSON
 Job cpu time:       0 days  0 hours  0 minutes 10.6 seconds.
 Elapsed time:       0 days  0 hours  0 minutes  3.2 seconds.
 File lengths (MBytes):  RWF=     10 Int=      0 D2E=      0 Chk=      2 Scr=      1
 Normal termination of Gaussian 16 at Thu Mar 20 00:10:17 2025.
