 Entering Gaussian System, Link 0=g16
 Input=PFMS_1000K_step0025.gjf
 Output=PFMS_1000K_step0025.log
 Initial command:
 /apps/easybuild-2022/easybuild/software/Compiler/NVHPC/22.11-CUDA-11.7.0/Gaussian/g16c01-CUDA-11.7.0/g16/l1.exe "/tmp/Gau-268996.inp" -scrdir="/tmp/"
 Default is to use a total of   4 processors:
                                4 via shared-memory
                                1 via Linda
 Entering Link 1 = /apps/easybuild-2022/easybuild/software/Compiler/NVHPC/22.11-CUDA-11.7.0/Gaussian/g16c01-CUDA-11.7.0/g16/l1.exe PID=    268997.
  
 Copyright (c) 1988-2019, Gaussian, Inc.  All Rights Reserved.
  
 This is part of the Gaussian(R) 16 program.  It is based on
 the Gaussian(R) 09 system (copyright 2009, Gaussian, Inc.),
 the Gaussian(R) 03 system (copyright 2003, Gaussian, Inc.),
 the Gaussian(R) 98 system (copyright 1998, Gaussian, Inc.),
 the Gaussian(R) 94 system (copyright 1995, Gaussian, Inc.),
 the Gaussian 92(TM) system (copyright 1992, Gaussian, Inc.),
 the Gaussian 90(TM) system (copyright 1990, Gaussian, Inc.),
 the Gaussian 88(TM) system (copyright 1988, Gaussian, Inc.),
 the Gaussian 86(TM) system (copyright 1986, Carnegie Mellon
 University), and the Gaussian 82(TM) system (copyright 1983,
 Carnegie Mellon University). Gaussian is a federally registered
 trademark of Gaussian, Inc.
  
 This software contains proprietary and confidential information,
 including trade secrets, belonging to Gaussian, Inc.
  
 This software is provided under written license and may be
 used, copied, transmitted, or stored only in accord with that
 written license.
  
 The following legend is applicable only to US Government
 contracts under FAR:
  
                    RESTRICTED RIGHTS LEGEND
  
 Use, reproduction and disclosure by the US Government is
 subject to restrictions as set forth in subparagraphs (a)
 and (c) of the Commercial Computer Software - Restricted
 Rights clause in FAR 52.227-19.
  
 Gaussian, Inc.
 340 Quinnipiac St., Bldg. 40, Wallingford CT 06492
  
  
 ---------------------------------------------------------------
 Warning -- This program may not be used in any manner that
 competes with the business of Gaussian, Inc. or will provide
 assistance to any competitor of Gaussian, Inc.  The licensee
 of this program is prohibited from giving any competitor of
 Gaussian, Inc. access to this program.  By using this program,
 the user acknowledges that Gaussian, Inc. is engaged in the
 business of creating and licensing software in the field of
 computational chemistry and represents and warrants to the
 licensee that it is not a competitor of Gaussian, Inc. and that
 it will not use this program in any manner prohibited above.
 ---------------------------------------------------------------
  

 Cite this work as:
 Gaussian 16, Revision C.01,
 M. J. Frisch, G. W. Trucks, H. B. Schlegel, G. E. Scuseria, 
 M. A. Robb, J. R. Cheeseman, G. Scalmani, V. Barone, 
 G. A. Petersson, H. Nakatsuji, X. Li, M. Caricato, A. V. Marenich, 
 J. Bloino, B. G. Janesko, R. Gomperts, B. Mennucci, H. P. Hratchian, 
 J. V. Ortiz, A. F. Izmaylov, J. L. Sonnenberg, D. Williams-Young, 
 F. Ding, F. Lipparini, F. Egidi, J. Goings, B. Peng, A. Petrone, 
 T. Henderson, D. Ranasinghe, V. G. Zakrzewski, J. Gao, N. Rega, 
 G. Zheng, W. Liang, M. Hada, M. Ehara, K. Toyota, R. Fukuda, 
 J. Hasegawa, M. Ishida, T. Nakajima, Y. Honda, O. Kitao, H. Nakai, 
 T. Vreven, K. Throssell, J. A. Montgomery, Jr., J. E. Peralta, 
 F. Ogliaro, M. J. Bearpark, J. J. Heyd, E. N. Brothers, K. N. Kudin, 
 V. N. Staroverov, T. A. Keith, R. Kobayashi, J. Normand, 
 K. Raghavachari, A. P. Rendell, J. C. Burant, S. S. Iyengar, 
 J. Tomasi, M. Cossi, J. M. Millam, M. Klene, C. Adamo, R. Cammi, 
 J. W. Ochterski, R. L. Martin, K. Morokuma, O. Farkas, 
 J. B. Foresman, and D. J. Fox, Gaussian, Inc., Wallingford CT, 2019.
 
 ******************************************
 Gaussian 16:  ES64L-G16RevC.01  3-Jul-2019
                20-Mar-2025 
 ******************************************
 %chk=PFMS_1000K_step0025.chk
 %mem=8GB
 %nprocshared=4
 Will use up to    4 processors via shared memory.
 -----------------------------------------
 # B3LYP/6-31G(d) pop=full density=current
 -----------------------------------------
 1/30=1,38=1,172=1/1;
 2/12=2,17=6,18=5,40=1/2;
 3/5=1,6=6,7=1,11=2,25=1,30=1,74=-5/1,2,3;
 4//1;
 5/5=2,38=5/2;
 6/7=3,22=-1,28=1/1;
 99/5=1,9=1/99;
 -----------------
 PFMS Time step 25
 -----------------
 Symbolic Z-matrix:
 Charge =  0 Multiplicity = 1
 C                    -0.91476   0.01696  -0.22763 
 F                    -1.06024   0.16701  -1.61561 
 F                    -1.57605   1.04952   0.35527 
 F                    -1.66943  -1.14199   0.06258 
 S                     0.85397  -0.16958   0.26784 
 O                     1.01104  -0.17575   1.72444 
 O                     1.5415   -1.05928  -0.53963 
 O                     1.42776   1.35061  -0.17878 
 H                     1.79708   1.93809   0.82582 
 
                          Input orientation:                          
 ---------------------------------------------------------------------
 Center     Atomic      Atomic             Coordinates (Angstroms)
 Number     Number       Type             X           Y           Z
 ---------------------------------------------------------------------
      1          6           0       -0.914755    0.016959   -0.227629
      2          9           0       -1.060241    0.167012   -1.615605
      3          9           0       -1.576046    1.049522    0.355266
      4          9           0       -1.669426   -1.141990    0.062576
      5         16           0        0.853967   -0.169576    0.267842
      6          8           0        1.011040   -0.175748    1.724442
      7          8           0        1.541495   -1.059284   -0.539629
      8          8           0        1.427760    1.350612   -0.178780
      9          1           0        1.797076    1.938093    0.825824
 ---------------------------------------------------------------------
                    Distance matrix (angstroms):
                    1          2          3          4          5
     1  C    0.000000
     2  F    1.403624   0.000000
     3  F    1.357667   2.220183   0.000000
     4  F    1.413121   2.213794   2.212942   0.000000
     5  S    1.846257   2.706447   2.720075   2.712054   0.000000
     6  O    2.748891   3.945073   3.173160   3.298533   1.465058
     7  O    2.699779   3.070921   3.868716   3.267951   1.384299
     8  O    2.695996   3.107334   3.065732   3.982948   1.685135
     9  H    3.486337   4.154704   3.519792   4.699585   2.375514
                    6          7          8          9
     6  O    0.000000
     7  O    2.487576   0.000000
     8  O    2.475012   2.439415   0.000000
     9  H    2.427692   3.303642   1.220966   0.000000
 Stoichiometry    CHF3O3S
 Framework group  C1[X(CHF3O3S)]
 Deg. of freedom    21
 Full point group                 C1      NOp   1
 Largest Abelian subgroup         C1      NOp   1
 Largest concise Abelian subgroup C1      NOp   1
                         Standard orientation:                         
 ---------------------------------------------------------------------
 Center     Atomic      Atomic             Coordinates (Angstroms)
 Number     Number       Type             X           Y           Z
 ---------------------------------------------------------------------
      1          6           0       -0.984775    0.047078    0.021851
      2          9           0       -1.500034   -0.042329   -1.280713
      3          9           0       -1.420962    1.222854    0.541997
      4          9           0       -1.674078   -0.968129    0.722656
      5         16           0        0.843624   -0.205770    0.062943
      6          8           0        1.394311    0.035873    1.398887
      7          8           0        1.248759   -1.284336   -0.704419
      8          8           0        1.329868    1.151464   -0.809503
      9          1           0        1.982843    1.874294   -0.073366
 ---------------------------------------------------------------------
 Rotational constants (GHZ):           2.5891170           1.4302783           1.4215259
 Standard basis: 6-31G(d) (6D, 7F)
 There are   126 symmetry adapted cartesian basis functions of A   symmetry.
 There are   126 symmetry adapted basis functions of A   symmetry.
   126 basis functions,   252 primitive gaussians,   126 cartesian basis functions
    37 alpha electrons       37 beta electrons
       nuclear repulsion energy       551.9254954523 Hartrees.
 NAtoms=    9 NActive=    9 NUniq=    9 SFac= 1.00D+00 NAtFMM=   60 NAOKFM=F Big=F
 Integral buffers will be    131072 words long.
 Raffenetti 2 integral format.
 Two-electron integral symmetry is turned on.
 One-electron integrals computed using PRISM.
 NBasis=   126 RedAO= T EigKep=  2.62D-03  NBF=   126
 NBsUse=   126 1.00D-06 EigRej= -1.00D+00 NBFU=   126
 ExpMin= 1.17D-01 ExpMax= 2.19D+04 ExpMxC= 3.30D+03 IAcc=3 IRadAn=         5 AccDes= 0.00D+00
 Harris functional with IExCor=  402 and IRadAn=       5 diagonalized for initial guess.
 HarFok:  IExCor=  402 AccDes= 0.00D+00 IRadAn=         5 IDoV= 1 UseB2=F ITyADJ=14
 ICtDFT=  3500011 ScaDFX=  1.000000  1.000000  1.000000  1.000000
 FoFCou: FMM=F IPFlag=           0 FMFlag=      100000 FMFlg1=           0
         NFxFlg=           0 DoJE=T BraDBF=F KetDBF=T FulRan=T
         wScrn=  0.000000 ICntrl=       500 IOpCl=  0 I1Cent=   200000004 NGrid=           0
         NMat0=    1 NMatS0=      1 NMatT0=    0 NMatD0=    1 NMtDS0=    0 NMtDT0=    0
 Petite list used in FoFCou.
 Keep R1 ints in memory in canonical form, NReq=35818892.
 Requested convergence on RMS density matrix=1.00D-08 within 128 cycles.
 Requested convergence on MAX density matrix=1.00D-06.
 Requested convergence on             energy=1.00D-06.
 No special actions if energy rises.
 Integral accuracy reduced to 1.0D-05 until final iterations.
 Initial convergence to 1.0D-05 achieved.  Increase integral accuracy.
 SCF Done:  E(RB3LYP) =  -961.940692655     A.U. after   14 cycles
            NFock= 14  Conv=0.10D-07     -V/T= 2.0064

 **********************************************************************

            Population analysis using the SCF Density.

 **********************************************************************

 Orbital symmetries:
       Occupied  (A) (A) (A) (A) (A) (A) (A) (A) (A) (A) (A) (A)
                 (A) (A) (A) (A) (A) (A) (A) (A) (A) (A) (A) (A)
                 (A) (A) (A) (A) (A) (A) (A) (A) (A) (A) (A) (A)
                 (A)
       Virtual   (A) (A) (A) (A) (A) (A) (A) (A) (A) (A) (A) (A)
                 (A) (A) (A) (A) (A) (A) (A) (A) (A) (A) (A) (A)
                 (A) (A) (A) (A) (A) (A) (A) (A) (A) (A) (A) (A)
                 (A) (A) (A) (A) (A) (A) (A) (A) (A) (A) (A) (A)
                 (A) (A) (A) (A) (A) (A) (A) (A) (A) (A) (A) (A)
                 (A) (A) (A) (A) (A) (A) (A) (A) (A) (A) (A) (A)
                 (A) (A) (A) (A) (A) (A) (A) (A) (A) (A) (A) (A)
                 (A) (A) (A) (A) (A)
 The electronic state is 1-A.
 Alpha  occ. eigenvalues --  -89.17283 -24.78188 -24.76269 -24.76103 -19.24049
 Alpha  occ. eigenvalues --  -19.20824 -19.19476 -10.50075  -8.19940  -6.16441
 Alpha  occ. eigenvalues --   -6.16300  -6.16266  -1.32632  -1.25034  -1.23150
 Alpha  occ. eigenvalues --   -1.19595  -1.07169  -1.02745  -0.79371  -0.68185
 Alpha  occ. eigenvalues --   -0.61611  -0.60918  -0.59633  -0.54990  -0.51074
 Alpha  occ. eigenvalues --   -0.49505  -0.48828  -0.48348  -0.46322  -0.45594
 Alpha  occ. eigenvalues --   -0.44767  -0.43161  -0.40316  -0.38537  -0.37057
 Alpha  occ. eigenvalues --   -0.35791  -0.34322
 Alpha virt. eigenvalues --   -0.06141  -0.02763   0.00637   0.01955   0.09094
 Alpha virt. eigenvalues --    0.11920   0.14213   0.19129   0.28454   0.31153
 Alpha virt. eigenvalues --    0.33931   0.39762   0.45872   0.49493   0.51744
 Alpha virt. eigenvalues --    0.64505   0.66895   0.69009   0.75293   0.76760
 Alpha virt. eigenvalues --    0.79876   0.85972   0.87471   0.92849   0.96739
 Alpha virt. eigenvalues --    0.97923   0.99938   1.01283   1.03178   1.08163
 Alpha virt. eigenvalues --    1.09847   1.10093   1.12693   1.16888   1.18533
 Alpha virt. eigenvalues --    1.21058   1.27184   1.28988   1.32373   1.34590
 Alpha virt. eigenvalues --    1.35013   1.36007   1.37948   1.52195   1.55038
 Alpha virt. eigenvalues --    1.57991   1.60017   1.68542   1.71373   1.73591
 Alpha virt. eigenvalues --    1.75040   1.76960   1.78325   1.78911   1.79735
 Alpha virt. eigenvalues --    1.81494   1.82394   1.83262   1.86390   1.90682
 Alpha virt. eigenvalues --    1.92455   1.94733   1.97701   1.99359   2.01310
 Alpha virt. eigenvalues --    2.05442   2.09486   2.12189   2.14221   2.17806
 Alpha virt. eigenvalues --    2.18405   2.29017   2.39436   2.59187   2.62281
 Alpha virt. eigenvalues --    2.63920   2.73048   2.81497   2.86083   3.00479
 Alpha virt. eigenvalues --    3.02328   3.55129   3.84164   3.86208   3.93854
 Alpha virt. eigenvalues --    4.25493   4.30038   4.34348   5.07032
     Molecular Orbital Coefficients:
                           1         2         3         4         5
                           O         O         O         O         O
     Eigenvalues --   -89.17283 -24.78188 -24.76269 -24.76103 -19.24049
   1 1   C  1S         -0.00003  -0.00003  -0.00003  -0.00002  -0.00002
   2        2S         -0.00007   0.00004  -0.00011  -0.00011  -0.00016
   3        2PX         0.00005  -0.00030  -0.00029  -0.00034   0.00003
   4        2PY        -0.00000   0.00056  -0.00001  -0.00037   0.00000
   5        2PZ         0.00000   0.00024  -0.00051   0.00027   0.00002
   6        3S          0.00082   0.00039   0.00027   0.00007   0.00105
   7        3PX         0.00038   0.00050   0.00045   0.00039   0.00048
   8        3PY        -0.00011  -0.00014  -0.00012   0.00005  -0.00064
   9        3PZ        -0.00003   0.00002  -0.00002  -0.00007  -0.00005
  10        4XX        -0.00005   0.00006   0.00012   0.00021   0.00005
  11        4YY        -0.00000   0.00039   0.00005   0.00036  -0.00003
  12        4ZZ        -0.00000   0.00009   0.00055   0.00020  -0.00002
  13        4XY         0.00002  -0.00018   0.00002   0.00026   0.00003
  14        4XZ         0.00000  -0.00009   0.00026  -0.00018  -0.00001
  15        4YZ         0.00000   0.00019   0.00004  -0.00023  -0.00003
  16 2   F  1S          0.00002   0.00005   0.99302  -0.00042  -0.00004
  17        2S          0.00011   0.00006   0.01973   0.00005  -0.00019
  18        2PX         0.00001   0.00000   0.00028  -0.00001  -0.00004
  19        2PY        -0.00000   0.00001   0.00005  -0.00001  -0.00001
  20        2PZ        -0.00000   0.00002   0.00066   0.00002  -0.00000
  21        3S         -0.00042  -0.00003   0.01466  -0.00003   0.00053
  22        3PX        -0.00013  -0.00002  -0.00015   0.00002   0.00012
  23        3PY         0.00002  -0.00009  -0.00003   0.00008   0.00010
  24        3PZ        -0.00006  -0.00011  -0.00046  -0.00012  -0.00002
  25        4XX         0.00006   0.00004  -0.00797   0.00004  -0.00010
  26        4YY         0.00005  -0.00003  -0.00794   0.00000  -0.00017
  27        4ZZ         0.00007  -0.00006  -0.00832  -0.00008  -0.00016
  28        4XY        -0.00000   0.00001  -0.00002  -0.00003   0.00001
  29        4XZ        -0.00003  -0.00002  -0.00019   0.00001  -0.00001
  30        4YZ         0.00001  -0.00009  -0.00003   0.00008   0.00003
  31 3   F  1S          0.00001   0.99301  -0.00005  -0.00004  -0.00005
  32        2S          0.00009   0.01973   0.00004   0.00006  -0.00027
  33        2PX         0.00002   0.00027   0.00000  -0.00000  -0.00002
  34        2PY         0.00000  -0.00066  -0.00001  -0.00002   0.00001
  35        2PZ         0.00000  -0.00029  -0.00002   0.00000   0.00001
  36        3S         -0.00032   0.01472   0.00006  -0.00004   0.00095
  37        3PX        -0.00013  -0.00016  -0.00001   0.00001   0.00010
  38        3PY         0.00005   0.00048   0.00005   0.00014  -0.00009
  39        3PZ         0.00001   0.00020   0.00013  -0.00003  -0.00009
  40        4XX         0.00005  -0.00797   0.00003   0.00004  -0.00016
  41        4YY         0.00006  -0.00831  -0.00002  -0.00011  -0.00019
  42        4ZZ         0.00005  -0.00802  -0.00010   0.00004  -0.00019
  43        4XY         0.00003   0.00017   0.00002  -0.00002  -0.00000
  44        4XZ         0.00001   0.00008  -0.00002   0.00003  -0.00001
  45        4YZ         0.00001  -0.00018  -0.00008   0.00003   0.00002
  46 4   F  1S          0.00002   0.00005   0.00042   0.99302   0.00005
  47        2S          0.00013   0.00009   0.00008   0.01971   0.00025
  48        2PX         0.00001   0.00001   0.00000   0.00037   0.00003
  49        2PY        -0.00001   0.00002   0.00001   0.00050   0.00001
  50        2PZ         0.00000   0.00000  -0.00002  -0.00034  -0.00002
  51        3S         -0.00046  -0.00016  -0.00008   0.01475  -0.00090
  52        3PX        -0.00015  -0.00005  -0.00002  -0.00021  -0.00020
  53        3PY        -0.00002  -0.00016  -0.00002  -0.00032  -0.00007
  54        3PZ         0.00004  -0.00000   0.00016   0.00021   0.00013
  55        4XX         0.00006   0.00005   0.00004  -0.00803   0.00016
  56        4YY         0.00009  -0.00010   0.00004  -0.00816   0.00019
  57        4ZZ         0.00007   0.00006  -0.00010  -0.00805   0.00016
  58        4XY        -0.00002  -0.00003  -0.00002  -0.00019  -0.00003
  59        4XZ         0.00002   0.00002   0.00000   0.00013   0.00003
  60        4YZ        -0.00001  -0.00000   0.00006   0.00018   0.00001
  61 5   S  1S          0.99612   0.00000   0.00000   0.00000   0.00000
  62        2S          0.01487   0.00006   0.00005   0.00003   0.00005
  63        2PX        -0.00001   0.00001   0.00001   0.00001  -0.00000
  64        2PY         0.00002   0.00000  -0.00000  -0.00000  -0.00006
  65        2PZ        -0.00001   0.00000  -0.00000  -0.00000   0.00004
  66        3S         -0.02413   0.00023   0.00019   0.00009   0.00003
  67        3PX         0.00009  -0.00009  -0.00009  -0.00012  -0.00011
  68        3PY        -0.00006   0.00002   0.00004   0.00002   0.00018
  69        3PZ         0.00003  -0.00003   0.00002   0.00001  -0.00011
  70        4S          0.00151  -0.00148  -0.00134  -0.00105  -0.00340
  71        4PX        -0.00002   0.00046   0.00052   0.00049   0.00031
  72        4PY        -0.00004  -0.00076  -0.00005   0.00022  -0.00073
  73        4PZ         0.00007  -0.00027   0.00078  -0.00014   0.00125
  74        5XX         0.00849   0.00003   0.00004   0.00002   0.00015
  75        5YY         0.00858   0.00005   0.00004   0.00004   0.00029
  76        5ZZ         0.00862   0.00002   0.00004   0.00002   0.00017
  77        5XY        -0.00001  -0.00001  -0.00001  -0.00000   0.00004
  78        5XZ         0.00001  -0.00000   0.00001  -0.00000  -0.00003
  79        5YZ         0.00005  -0.00000  -0.00001  -0.00003  -0.00018
  80 6   O  1S          0.00001  -0.00004   0.00002  -0.00003  -0.00005
  81        2S          0.00000  -0.00019   0.00007  -0.00011  -0.00006
  82        2PX         0.00003   0.00002   0.00001   0.00003  -0.00001
  83        2PY         0.00002  -0.00002  -0.00001   0.00001  -0.00004
  84        2PZ         0.00011   0.00002  -0.00000   0.00001   0.00001
  85        3S          0.00040   0.00097  -0.00035   0.00055   0.00045
  86        3PX        -0.00007  -0.00021  -0.00004  -0.00018  -0.00005
  87        3PY        -0.00005   0.00012   0.00005  -0.00009   0.00014
  88        3PZ        -0.00029  -0.00020   0.00001  -0.00009  -0.00022
  89        4XX         0.00001  -0.00011   0.00005  -0.00007  -0.00002
  90        4YY         0.00005  -0.00013   0.00005  -0.00008  -0.00007
  91        4ZZ        -0.00017  -0.00012   0.00006  -0.00008  -0.00006
  92        4XY        -0.00002  -0.00001  -0.00000   0.00001  -0.00002
  93        4XZ        -0.00012   0.00002   0.00000   0.00002   0.00002
  94        4YZ        -0.00004  -0.00002  -0.00001   0.00001   0.00004
  95 7   O  1S          0.00001   0.00001  -0.00004  -0.00003  -0.00003
  96        2S         -0.00005   0.00005  -0.00018  -0.00013  -0.00022
  97        2PX         0.00004   0.00001   0.00001   0.00003   0.00002
  98        2PY        -0.00015  -0.00001  -0.00002   0.00000  -0.00000
  99        2PZ        -0.00010   0.00001   0.00001  -0.00002   0.00003
 100        3S          0.00049  -0.00025   0.00095   0.00063   0.00152
 101        3PX        -0.00005  -0.00004  -0.00018  -0.00018  -0.00020
 102        3PY         0.00026   0.00006   0.00022   0.00006   0.00033
 103        3PZ         0.00017  -0.00003  -0.00004   0.00014  -0.00002
 104        4XX         0.00003   0.00004  -0.00010  -0.00008  -0.00012
 105        4YY        -0.00010   0.00005  -0.00009  -0.00009  -0.00022
 106        4ZZ        -0.00002   0.00004  -0.00013  -0.00008  -0.00016
 107        4XY         0.00008  -0.00000  -0.00002  -0.00002  -0.00005
 108        4XZ         0.00005   0.00000  -0.00000  -0.00002   0.00003
 109        4YZ        -0.00013  -0.00000  -0.00002   0.00001   0.00003
 110 8   O  1S         -0.00002  -0.00003  -0.00003   0.00000   0.99283
 111        2S         -0.00002  -0.00014  -0.00016  -0.00000   0.02572
 112        2PX        -0.00003   0.00001   0.00001   0.00001   0.00015
 113        2PY        -0.00002   0.00002   0.00002  -0.00000  -0.00008
 114        2PZ        -0.00000  -0.00001   0.00000   0.00000   0.00084
 115        3S          0.00056   0.00072   0.00078   0.00001   0.01154
 116        3PX        -0.00001  -0.00015  -0.00014  -0.00007  -0.00031
 117        3PY        -0.00022  -0.00015  -0.00022  -0.00000  -0.00053
 118        3PZ         0.00021   0.00017   0.00001   0.00001   0.00013
 119        4XX        -0.00006  -0.00007  -0.00009   0.00000  -0.00792
 120        4YY        -0.00010  -0.00009  -0.00008  -0.00000  -0.00793
 121        4ZZ        -0.00006  -0.00006  -0.00011   0.00000  -0.00796
 122        4XY        -0.00002   0.00001   0.00003   0.00001   0.00003
 123        4XZ         0.00003  -0.00002  -0.00000  -0.00000  -0.00000
 124        4YZ         0.00006  -0.00001   0.00001   0.00000   0.00002
 125 9   H  1S         -0.00006  -0.00003  -0.00001   0.00000   0.00022
 126        2S         -0.00008   0.00011   0.00001  -0.00002  -0.00068
                           6         7         8         9        10
                           O         O         O         O         O
     Eigenvalues --   -19.20824 -19.19476 -10.50075  -8.19940  -6.16441
   1 1   C  1S         -0.00001  -0.00001   0.99338   0.00002  -0.00000
   2        2S         -0.00006  -0.00010   0.04657   0.00074  -0.00018
   3        2PX         0.00003   0.00001  -0.00063  -0.00011  -0.00005
   4        2PY         0.00004  -0.00001   0.00029  -0.00004  -0.00013
   5        2PZ         0.00003  -0.00005   0.00006  -0.00001   0.00006
   6        3S          0.00036   0.00052  -0.01275  -0.00198   0.00006
   7        3PX         0.00022   0.00037  -0.00292  -0.00187  -0.00005
   8        3PY        -0.00040   0.00042   0.00032   0.00094  -0.00163
   9        3PZ        -0.00069   0.00054   0.00016   0.00032   0.00067
  10        4XX         0.00003   0.00004  -0.00827  -0.00067   0.00007
  11        4YY        -0.00003   0.00001  -0.00769  -0.00014   0.00013
  12        4ZZ         0.00002  -0.00003  -0.00783  -0.00017   0.00001
  13        4XY         0.00001  -0.00002  -0.00003   0.00005  -0.00033
  14        4XZ         0.00002  -0.00001  -0.00005  -0.00003   0.00018
  15        4YZ        -0.00000   0.00002   0.00010  -0.00000  -0.00015
  16 2   F  1S         -0.00000   0.00001  -0.00011  -0.00016  -0.00000
  17        2S          0.00001   0.00003  -0.00032  -0.00089  -0.00004
  18        2PX        -0.00003   0.00004   0.00000  -0.00020   0.00001
  19        2PY        -0.00001   0.00000  -0.00000   0.00005  -0.00013
  20        2PZ         0.00002  -0.00001   0.00002  -0.00002   0.00003
  21        3S         -0.00019   0.00001   0.00171   0.00290   0.00022
  22        3PX         0.00007  -0.00012   0.00001   0.00104   0.00004
  23        3PY         0.00003  -0.00004  -0.00004  -0.00023   0.00058
  24        3PZ        -0.00014   0.00008  -0.00044   0.00031  -0.00009
  25        4XX         0.00003   0.00003  -0.00021  -0.00047   0.00002
  26        4YY        -0.00003   0.00005  -0.00005  -0.00066   0.00001
  27        4ZZ        -0.00004   0.00006  -0.00087  -0.00064  -0.00005
  28        4XY        -0.00001   0.00000  -0.00001  -0.00002   0.00012
  29        4XZ        -0.00002  -0.00001  -0.00021   0.00020  -0.00002
  30        4YZ         0.00002  -0.00002  -0.00008  -0.00006   0.00007
  31 3   F  1S          0.00001  -0.00000  -0.00009  -0.00011  -0.00006
  32        2S          0.00001  -0.00000  -0.00015  -0.00061  -0.00037
  33        2PX         0.00004  -0.00003   0.00000  -0.00021  -0.00002
  34        2PY         0.00001  -0.00001  -0.00003   0.00002  -0.00005
  35        2PZ        -0.00001   0.00000  -0.00000  -0.00001   0.00010
  36        3S          0.00010  -0.00014   0.00103   0.00172   0.00142
  37        3PX        -0.00011   0.00005  -0.00006   0.00099   0.00019
  38        3PY        -0.00010   0.00011   0.00072  -0.00015   0.00011
  39        3PZ         0.00003   0.00000   0.00029   0.00001  -0.00049
  40        4XX         0.00001   0.00001  -0.00007  -0.00030  -0.00019
  41        4YY         0.00006  -0.00006  -0.00072  -0.00046  -0.00031
  42        4ZZ         0.00003  -0.00004  -0.00007  -0.00051  -0.00020
  43        4XY         0.00000   0.00001   0.00020  -0.00018   0.00002
  44        4XZ        -0.00000   0.00002   0.00008  -0.00007  -0.00010
  45        4YZ        -0.00002   0.00001  -0.00041   0.00000   0.00001
  46 4   F  1S         -0.00003  -0.00003  -0.00010  -0.00013   0.00019
  47        2S         -0.00017  -0.00015  -0.00031  -0.00075   0.00109
  48        2PX        -0.00003  -0.00002  -0.00001  -0.00018   0.00013
  49        2PY        -0.00001   0.00000   0.00002   0.00003  -0.00002
  50        2PZ        -0.00001   0.00001  -0.00001   0.00002  -0.00001
  51        3S          0.00054   0.00048   0.00161   0.00244  -0.00382
  52        3PX         0.00010   0.00006  -0.00001   0.00098  -0.00084
  53        3PY         0.00008  -0.00003  -0.00042  -0.00001  -0.00008
  54        3PZ         0.00006  -0.00010   0.00025  -0.00020   0.00019
  55        4XX        -0.00011  -0.00010  -0.00026  -0.00033   0.00054
  56        4YY        -0.00011  -0.00016  -0.00059  -0.00060   0.00081
  57        4ZZ        -0.00018  -0.00010  -0.00030  -0.00052   0.00075
  58        4XY        -0.00000  -0.00000  -0.00026   0.00011  -0.00003
  59        4XZ        -0.00001   0.00000   0.00018  -0.00011   0.00005
  60        4YZ         0.00001  -0.00002   0.00041   0.00001  -0.00006
  61 5   S  1S          0.00001   0.00001  -0.00001  -0.27990   0.00050
  62        2S         -0.00007  -0.00004  -0.00019   1.02295  -0.00205
  63        2PX         0.00004   0.00001  -0.00001  -0.00013   0.23849
  64        2PY        -0.00007  -0.00001   0.00001   0.00124   0.82791
  65        2PZ        -0.00004  -0.00000   0.00000  -0.00163  -0.48986
  66        3S          0.00090   0.00076  -0.00066   0.07273  -0.00086
  67        3PX        -0.00010  -0.00002  -0.00010   0.00032   0.00708
  68        3PY         0.00004   0.00010  -0.00008  -0.00025   0.02590
  69        3PZ        -0.00002   0.00022   0.00000  -0.00032  -0.01491
  70        4S         -0.00328  -0.00326   0.00770  -0.00783   0.00160
  71        4PX        -0.00040  -0.00058  -0.00305   0.00166  -0.00194
  72        4PY         0.00174  -0.00106   0.00133  -0.00122  -0.00408
  73        4PZ         0.00197  -0.00210  -0.00049  -0.00019   0.00262
  74        5XX        -0.00025  -0.00014  -0.00012  -0.01526  -0.00037
  75        5YY        -0.00035  -0.00018  -0.00017  -0.01479   0.00065
  76        5ZZ        -0.00030  -0.00008  -0.00007  -0.01465  -0.00022
  77        5XY         0.00006   0.00003   0.00005  -0.00013   0.00082
  78        5XZ         0.00002   0.00004  -0.00000   0.00010  -0.00050
  79        5YZ        -0.00010   0.00001   0.00007   0.00047  -0.00162
  80 6   O  1S         -0.00020   0.99275   0.00006  -0.00009   0.00011
  81        2S          0.00008   0.02570   0.00030   0.00043  -0.00003
  82        2PX        -0.00004  -0.00039  -0.00004   0.00000  -0.00003
  83        2PY         0.00006  -0.00017   0.00003  -0.00012  -0.00001
  84        2PZ        -0.00000  -0.00088  -0.00000  -0.00029   0.00010
  85        3S         -0.00042   0.01260  -0.00173  -0.00326   0.00045
  86        3PX         0.00019  -0.00027   0.00057   0.00056  -0.00040
  87        3PY        -0.00031   0.00003  -0.00019   0.00082  -0.00086
  88        3PZ        -0.00012  -0.00059   0.00041   0.00284  -0.00083
  89        4XX         0.00007  -0.00809   0.00020   0.00028   0.00014
  90        4YY         0.00004  -0.00810   0.00012   0.00022   0.00021
  91        4ZZ         0.00009  -0.00806   0.00014   0.00019  -0.00022
  92        4XY         0.00003  -0.00001  -0.00001   0.00000   0.00028
  93        4XZ         0.00000   0.00002  -0.00006   0.00005   0.00016
  94        4YZ        -0.00001  -0.00001   0.00005  -0.00001   0.00057
  95 7   O  1S          0.99268   0.00023   0.00005  -0.00016   0.00025
  96        2S          0.02569   0.00007   0.00025   0.00082  -0.00015
  97        2PX        -0.00039  -0.00004  -0.00002  -0.00006   0.00002
  98        2PY         0.00091   0.00002   0.00002   0.00045  -0.00023
  99        2PZ         0.00068  -0.00004  -0.00003   0.00040  -0.00017
 100        3S          0.01344  -0.00025  -0.00155  -0.00529   0.00131
 101        3PX        -0.00027   0.00020   0.00048   0.00051  -0.00048
 102        3PY         0.00069   0.00005  -0.00045  -0.00275   0.00078
 103        3PZ         0.00031   0.00035   0.00001  -0.00220   0.00151
 104        4XX        -0.00826   0.00005   0.00019   0.00037   0.00013
 105        4YY        -0.00812   0.00007   0.00006   0.00047  -0.00055
 106        4ZZ        -0.00821   0.00003   0.00011   0.00040   0.00043
 107        4XY        -0.00007   0.00002   0.00004  -0.00012   0.00001
 108        4XZ        -0.00004  -0.00003   0.00002  -0.00010  -0.00018
 109        4YZ         0.00011   0.00002   0.00006   0.00018   0.00003
 110 8   O  1S         -0.00006  -0.00000   0.00008   0.00002   0.00006
 111        2S         -0.00012  -0.00014   0.00037   0.00033   0.00116
 112        2PX        -0.00001  -0.00001   0.00000   0.00016   0.00007
 113        2PY         0.00004  -0.00001  -0.00003   0.00009   0.00006
 114        2PZ         0.00004  -0.00005   0.00000   0.00002   0.00009
 115        3S          0.00085   0.00092  -0.00222  -0.00164  -0.00433
 116        3PX         0.00002   0.00000   0.00037  -0.00012   0.00106
 117        3PY        -0.00033  -0.00007   0.00057   0.00150   0.00326
 118        3PZ        -0.00018   0.00040  -0.00030  -0.00123  -0.00264
 119        4XX        -0.00008  -0.00009   0.00031   0.00028   0.00068
 120        4YY        -0.00014  -0.00011   0.00016  -0.00029  -0.00051
 121        4ZZ        -0.00013  -0.00013   0.00013   0.00009   0.00025
 122        4XY         0.00002  -0.00002  -0.00003  -0.00022  -0.00065
 123        4XZ         0.00003  -0.00004   0.00001   0.00006   0.00032
 124        4YZ        -0.00001  -0.00000  -0.00002   0.00038   0.00093
 125 9   H  1S          0.00002  -0.00004   0.00008   0.00014   0.00028
 126        2S         -0.00008   0.00008  -0.00027   0.00068   0.00066
                          11        12        13        14        15
                           O         O         O         O         O
     Eigenvalues --    -6.16300  -6.16266  -1.32632  -1.25034  -1.23150
   1 1   C  1S          0.00003  -0.00011  -0.09303   0.01541  -0.00163
   2        2S          0.00101  -0.00176   0.19101  -0.03203   0.00344
   3        2PX        -0.00009   0.00006  -0.05541   0.01679  -0.01163
   4        2PY        -0.00006  -0.00002   0.03655   0.11795  -0.06292
   5        2PZ        -0.00007  -0.00003   0.01056   0.07015   0.11169
   6        3S         -0.00286   0.00571   0.01730  -0.00821   0.00088
   7        3PX        -0.00229   0.00342   0.01825  -0.00430   0.00033
   8        3PY        -0.00129  -0.00143  -0.00333  -0.00417  -0.00021
   9        3PZ        -0.00241  -0.00194   0.00013  -0.00400  -0.00177
  10        4XX        -0.00088   0.00111  -0.00901  -0.00136   0.00221
  11        4YY        -0.00020   0.00003   0.00372   0.01445   0.00987
  12        4ZZ         0.00003   0.00016  -0.00294  -0.01199  -0.01225
  13        4XY        -0.00005  -0.00026  -0.00319  -0.01332   0.00898
  14        4XZ        -0.00027  -0.00016  -0.00158  -0.00652  -0.01372
  15        4YZ        -0.00004   0.00004   0.00501   0.01395  -0.01134
  16 2   F  1S          0.00001   0.00030  -0.09949   0.13041   0.15107
  17        2S          0.00008   0.00179   0.21651  -0.29180  -0.34001
  18        2PX        -0.00015   0.00027   0.01771  -0.02018  -0.02424
  19        2PY        -0.00005  -0.00006   0.00575   0.00560  -0.00960
  20        2PZ         0.00000   0.00007   0.05349  -0.04720  -0.04550
  21        3S         -0.00071  -0.00627   0.21807  -0.27948  -0.32287
  22        3PX         0.00057  -0.00171   0.00997  -0.01145  -0.01450
  23        3PY         0.00026   0.00030   0.00463   0.00445  -0.00608
  24        3PZ        -0.00016  -0.00087   0.03820  -0.02755  -0.02518
  25        4XX         0.00008   0.00094   0.00237  -0.00570  -0.00729
  26        4YY        -0.00006   0.00118   0.00035  -0.00343  -0.00489
  27        4ZZ         0.00000   0.00121   0.01442  -0.01300  -0.01365
  28        4XY         0.00005   0.00003   0.00048   0.00009  -0.00046
  29        4XZ         0.00011  -0.00032   0.00574  -0.00464  -0.00513
  30        4YZ         0.00005   0.00008   0.00155   0.00058  -0.00162
  31 3   F  1S         -0.00027   0.00008  -0.15570  -0.15763   0.01164
  32        2S         -0.00155   0.00049   0.34481   0.35717  -0.02664
  33        2PX        -0.00022   0.00022   0.02510   0.02474  -0.00279
  34        2PY         0.00009  -0.00001  -0.07380  -0.04750  -0.00242
  35        2PZ        -0.00006  -0.00007  -0.03290  -0.01942   0.01263
  36        3S          0.00547  -0.00132   0.33066   0.33106  -0.02395
  37        3PX         0.00136  -0.00108   0.01238   0.01393  -0.00173
  38        3PY        -0.00087   0.00016  -0.04502  -0.02214  -0.00244
  39        3PZ         0.00014   0.00042  -0.02041  -0.00833   0.00825
  40        4XX        -0.00084   0.00024   0.00509   0.00802  -0.00074
  41        4YY        -0.00098   0.00035   0.01777   0.01279   0.00031
  42        4ZZ        -0.00108   0.00036   0.00583   0.00704  -0.00182
  43        4XY        -0.00027   0.00018  -0.00590  -0.00409   0.00025
  44        4XZ        -0.00005   0.00014  -0.00258  -0.00167   0.00052
  45        4YZ        -0.00007  -0.00009   0.00770   0.00316  -0.00147
  46 4   F  1S         -0.00012   0.00017  -0.09556   0.10251  -0.17420
  47        2S         -0.00069   0.00097   0.20729  -0.22905   0.39156
  48        2PX        -0.00018   0.00023   0.02354  -0.02095   0.03396
  49        2PY        -0.00007  -0.00005   0.04125  -0.02255   0.04347
  50        2PZ        -0.00011  -0.00011  -0.02636   0.02732  -0.02381
  51        3S          0.00223  -0.00317   0.21063  -0.21988   0.37283
  52        3PX         0.00097  -0.00131   0.01468  -0.01230   0.02031
  53        3PY         0.00047   0.00013   0.03032  -0.01249   0.02495
  54        3PZ         0.00048   0.00066  -0.01917   0.01741  -0.01267
  55        4XX        -0.00030   0.00044   0.00361  -0.00544   0.00983
  56        4YY        -0.00045   0.00081   0.00867  -0.00603   0.01230
  57        4ZZ        -0.00060   0.00062   0.00375  -0.00591   0.00768
  58        4XY         0.00019  -0.00011   0.00602  -0.00337   0.00580
  59        4XZ         0.00001   0.00021  -0.00403   0.00305  -0.00375
  60        4YZ         0.00005   0.00001  -0.00666   0.00409  -0.00481
  61 5   S  1S         -0.00014  -0.00029   0.00492  -0.00284   0.00001
  62        2S          0.00040   0.00122  -0.02331   0.01275   0.00004
  63        2PX        -0.51622   0.81168   0.00724  -0.00127   0.00049
  64        2PY         0.53560   0.09755  -0.00044  -0.00419   0.00123
  65        2PZ         0.65432   0.55999   0.00057  -0.00289  -0.00321
  66        3S         -0.00050  -0.00050   0.03681  -0.02531   0.00038
  67        3PX        -0.01622   0.02558  -0.01698   0.00340  -0.00087
  68        3PY         0.01825   0.00346   0.00129   0.00850  -0.00251
  69        3PZ         0.02190   0.01860  -0.00123   0.00641   0.00698
  70        4S         -0.00274   0.00090   0.01153   0.00177  -0.00005
  71        4PX         0.00262  -0.00371  -0.00431   0.00311  -0.00183
  72        4PY        -0.00137   0.00009   0.00437   0.01476  -0.00505
  73        4PZ        -0.00080  -0.00137   0.00103   0.01090   0.01257
  74        5XX         0.00092  -0.00064   0.00766  -0.00114   0.00086
  75        5YY        -0.00151   0.00031  -0.00188   0.00109  -0.00058
  76        5ZZ         0.00007   0.00189  -0.00199   0.00063  -0.00033
  77        5XY         0.00058   0.00040  -0.00254  -0.00183   0.00180
  78        5XZ         0.00106   0.00075   0.00017  -0.00136  -0.00277
  79        5YZ        -0.00102   0.00017   0.00126  -0.00135   0.00018
  80 6   O  1S         -0.00020  -0.00020  -0.00416   0.00242  -0.00089
  81        2S          0.00033   0.00111   0.01028  -0.00278   0.00374
  82        2PX        -0.00003  -0.00018  -0.00291   0.00085  -0.00089
  83        2PY         0.00002  -0.00005  -0.00050   0.00107  -0.00060
  84        2PZ        -0.00017  -0.00038  -0.00473   0.00222  -0.00082
  85        3S         -0.00282  -0.00681   0.00270  -0.01505  -0.00610
  86        3PX         0.00136   0.00157   0.00061   0.00041   0.00048
  87        3PY        -0.00023   0.00069  -0.00085  -0.00164   0.00169
  88        3PZ         0.00195   0.00456  -0.00083   0.00309   0.00026
  89        4XX        -0.00020   0.00077   0.00039   0.00094   0.00063
  90        4YY         0.00010   0.00058   0.00034   0.00096   0.00043
  91        4ZZ         0.00028   0.00019   0.00152   0.00040   0.00108
  92        4XY         0.00003   0.00003   0.00012  -0.00011  -0.00003
  93        4XZ        -0.00037   0.00019   0.00051  -0.00026   0.00005
  94        4YZ         0.00034  -0.00009   0.00037   0.00017  -0.00003
  95 7   O  1S          0.00052   0.00016  -0.00572   0.00675   0.00065
  96        2S         -0.00159   0.00005   0.01308  -0.01741  -0.00176
  97        2PX         0.00034   0.00003  -0.00318   0.00320   0.00020
  98        2PY        -0.00086  -0.00014   0.00560  -0.00593  -0.00103
  99        2PZ        -0.00055  -0.00001   0.00368  -0.00409   0.00049
 100        3S          0.00968   0.00040   0.00792   0.00079   0.00113
 101        3PX        -0.00170  -0.00081   0.00059   0.00044   0.00076
 102        3PY         0.00490   0.00047   0.00070  -0.00102   0.00174
 103        3PZ         0.00283  -0.00045   0.00106  -0.00035  -0.00199
 104        4XX        -0.00063   0.00037   0.00009  -0.00085  -0.00020
 105        4YY        -0.00078   0.00006   0.00093  -0.00170   0.00014
 106        4ZZ        -0.00083  -0.00016   0.00056  -0.00108  -0.00030
 107        4XY         0.00029  -0.00030  -0.00046   0.00046   0.00014
 108        4XZ         0.00026  -0.00015  -0.00035   0.00021  -0.00004
 109        4YZ        -0.00041  -0.00040   0.00079  -0.00115  -0.00014
 110 8   O  1S         -0.00005   0.00014  -0.00359   0.00160   0.00144
 111        2S         -0.00026   0.00054   0.00807  -0.00300  -0.00391
 112        2PX         0.00010  -0.00002  -0.00174   0.00037   0.00047
 113        2PY         0.00010   0.00007  -0.00243   0.00155   0.00088
 114        2PZ         0.00005   0.00011   0.00227  -0.00042  -0.00039
 115        3S          0.00125  -0.00233   0.00400  -0.00597   0.00214
 116        3PX        -0.00041  -0.00024   0.00002  -0.00033   0.00172
 117        3PY        -0.00116  -0.00025  -0.00018   0.00118  -0.00173
 118        3PZ        -0.00042  -0.00097   0.00051  -0.00256  -0.00051
 119        4XX        -0.00027   0.00063   0.00004   0.00025  -0.00043
 120        4YY         0.00051   0.00052   0.00056  -0.00001   0.00009
 121        4ZZ        -0.00064   0.00006   0.00016  -0.00041  -0.00016
 122        4XY        -0.00011   0.00040   0.00018  -0.00018  -0.00022
 123        4XZ         0.00029  -0.00017  -0.00006  -0.00014   0.00005
 124        4YZ         0.00006   0.00033  -0.00046   0.00047   0.00015
 125 9   H  1S          0.00011   0.00022   0.00083   0.00011  -0.00041
 126        2S          0.00045   0.00093  -0.00064  -0.00227   0.00044
                          16        17        18        19        20
                           O         O         O         O         O
     Eigenvalues --    -1.19595  -1.07169  -1.02745  -0.79371  -0.68185
   1 1   C  1S         -0.00544  -0.00358  -0.00173  -0.13344   0.08322
   2        2S          0.00014   0.00422   0.00264   0.30900  -0.20589
   3        2PX         0.03465   0.01049   0.00544   0.15628   0.22995
   4        2PY        -0.00137   0.00081   0.00231  -0.01445  -0.04992
   5        2PZ         0.00319   0.00218  -0.00321   0.00545  -0.01245
   6        3S          0.04908   0.01730   0.00748   0.23191  -0.12076
   7        3PX         0.02153   0.00743   0.00335   0.08945   0.00739
   8        3PY        -0.00054   0.00406   0.00571  -0.01344  -0.00562
   9        3PZ         0.00155   0.00369  -0.00370  -0.00042  -0.00437
  10        4XX         0.00697   0.00150   0.00036   0.00653   0.01217
  11        4YY        -0.00183  -0.00157   0.00001  -0.01122  -0.00031
  12        4ZZ        -0.00317  -0.00020  -0.00087  -0.01205   0.00278
  13        4XY        -0.00160   0.00066   0.00132  -0.00277   0.00159
  14        4XZ        -0.00016   0.00081  -0.00128   0.00036   0.00087
  15        4YZ         0.00046  -0.00056  -0.00068   0.00027  -0.00221
  16 2   F  1S          0.01695  -0.00115   0.00349   0.04823  -0.03933
  17        2S         -0.03893   0.00461  -0.01049  -0.10601   0.08511
  18        2PX         0.00134   0.00019   0.00199   0.07570   0.00017
  19        2PY        -0.00061   0.00061   0.00078   0.00230  -0.02808
  20        2PZ        -0.00546   0.00003   0.00010   0.09401  -0.20206
  21        3S         -0.03811  -0.00133  -0.00465  -0.14911   0.12710
  22        3PX         0.00026  -0.00222   0.00333   0.04002   0.00481
  23        3PY        -0.00097   0.00111   0.00033   0.00256  -0.01730
  24        3PZ        -0.00496   0.00007  -0.00034   0.05533  -0.12294
  25        4XX        -0.00035   0.00054  -0.00069   0.00315   0.00377
  26        4YY        -0.00143   0.00088  -0.00172  -0.00231   0.00151
  27        4ZZ        -0.00251   0.00125  -0.00168   0.00789  -0.01582
  28        4XY        -0.00030   0.00052   0.00039   0.00020  -0.00043
  29        4XZ        -0.00038  -0.00010   0.00021   0.00708  -0.00115
  30        4YZ        -0.00015  -0.00001  -0.00013   0.00070  -0.00255
  31 3   F  1S          0.00624   0.00587   0.00220   0.05071  -0.05079
  32        2S         -0.01236  -0.01618  -0.00629  -0.11271   0.10643
  33        2PX         0.00287   0.00277   0.00163   0.08175  -0.00497
  34        2PY         0.00216  -0.00007   0.00054  -0.10502   0.25645
  35        2PZ         0.00134   0.00034  -0.00126  -0.04313   0.11716
  36        3S         -0.02063  -0.01080  -0.00428  -0.15436   0.17670
  37        3PX        -0.00025   0.00423   0.00234   0.04236   0.00411
  38        3PY         0.00364   0.00077   0.00086  -0.06194   0.14999
  39        3PZ         0.00163   0.00113  -0.00077  -0.02580   0.06909
  40        4XX         0.00098  -0.00061  -0.00018   0.00209   0.00289
  41        4YY        -0.00034  -0.00212  -0.00089   0.00679  -0.01652
  42        4ZZ        -0.00005  -0.00207  -0.00100  -0.00121  -0.00288
  43        4XY         0.00005  -0.00044   0.00009  -0.00701   0.00074
  44        4XZ         0.00006   0.00011  -0.00064  -0.00286   0.00036
  45        4YZ        -0.00020  -0.00008  -0.00001   0.00474  -0.00921
  46 4   F  1S          0.01453   0.00157  -0.00233   0.04694  -0.04124
  47        2S         -0.03178  -0.00292   0.00634  -0.10394   0.08848
  48        2PX         0.00086   0.00102  -0.00072   0.08484  -0.03450
  49        2PY        -0.00380   0.00013  -0.00033   0.06557  -0.17452
  50        2PZ         0.00286   0.00059  -0.00000  -0.04702   0.10722
  51        3S         -0.03614  -0.00531   0.00506  -0.14298   0.13515
  52        3PX        -0.00156  -0.00035  -0.00183   0.04595  -0.01625
  53        3PY        -0.00406   0.00027   0.00038   0.04031  -0.10674
  54        3PZ         0.00218   0.00110  -0.00070  -0.02780   0.06574
  55        4XX         0.00010   0.00030   0.00023   0.00439   0.00210
  56        4YY        -0.00108   0.00004   0.00076   0.00310  -0.01081
  57        4ZZ        -0.00073   0.00024   0.00081  -0.00006  -0.00363
  58        4XY        -0.00067   0.00028  -0.00007   0.00613  -0.00407
  59        4XZ         0.00024   0.00047  -0.00008  -0.00432   0.00223
  60        4YZ         0.00046  -0.00008   0.00001  -0.00457   0.00901
  61 5   S  1S          0.05285   0.00842  -0.00237   0.02834   0.03043
  62        2S         -0.23642  -0.03740   0.01169  -0.12279  -0.13512
  63        2PX        -0.03323  -0.00846   0.00690   0.11531   0.04682
  64        2PY         0.03797  -0.09281  -0.05325  -0.02867  -0.03173
  65        2PZ         0.01700  -0.10588   0.07190   0.00831   0.01605
  66        3S          0.49185   0.07864  -0.02392   0.30029   0.32682
  67        3PX         0.06254   0.01668  -0.01630  -0.28897  -0.11807
  68        3PY        -0.07583   0.20710   0.11822   0.07286   0.08058
  69        3PZ        -0.03760   0.23534  -0.16110  -0.02035  -0.04038
  70        4S         -0.05650  -0.01876  -0.01303   0.01762   0.14525
  71        4PX        -0.00158  -0.00176   0.00093   0.01358  -0.04717
  72        4PY        -0.00417  -0.02761  -0.01860   0.00093   0.02166
  73        4PZ         0.00679  -0.02234   0.01357   0.00594  -0.00258
  74        5XX        -0.03561   0.00313   0.00340   0.04570   0.00098
  75        5YY         0.00239  -0.03751   0.03175  -0.02009  -0.00969
  76        5ZZ         0.00236   0.03613  -0.02540  -0.02799  -0.01191
  77        5XY        -0.01193   0.02925   0.01299  -0.00462   0.00499
  78        5XZ        -0.00255   0.03951  -0.02483  -0.00051  -0.00150
  79        5YZ         0.03489  -0.03404  -0.04065  -0.01588  -0.01473
  80 6   O  1S         -0.07998  -0.14572   0.09679   0.05095   0.04748
  81        2S          0.17023   0.32026  -0.21861  -0.11599  -0.10275
  82        2PX        -0.02929  -0.04660   0.03039  -0.03424  -0.03949
  83        2PY        -0.01442  -0.00877   0.02193   0.00467   0.00200
  84        2PZ        -0.07793  -0.10622   0.05936   0.00065  -0.04294
  85        3S          0.16633   0.30001  -0.19319  -0.13458  -0.16270
  86        3PX        -0.01416  -0.01516   0.01004  -0.01807  -0.01164
  87        3PY        -0.00309   0.00246   0.00858  -0.00018  -0.00211
  88        3PZ        -0.03504  -0.03223   0.01607  -0.00118  -0.01362
  89        4XX        -0.00253  -0.00281   0.00034   0.00346   0.00396
  90        4YY        -0.00474  -0.00625   0.00210   0.00038   0.00156
  91        4ZZ         0.01166   0.00800  -0.00548   0.00039   0.00534
  92        4XY         0.00196   0.00094  -0.00138   0.00000  -0.00011
  93        4XZ         0.00768   0.00808  -0.00446   0.00342   0.00327
  94        4YZ         0.00365   0.00105  -0.00271  -0.00046   0.00003
  95 7   O  1S         -0.13649   0.13103   0.02208   0.05016   0.05150
  96        2S          0.29863  -0.29357  -0.05007  -0.11784  -0.11621
  97        2PX        -0.04146   0.03812   0.00596  -0.04149  -0.04180
  98        2PY         0.11248  -0.08101  -0.00237   0.00411   0.05195
  99        2PZ         0.07959  -0.05365  -0.02276  -0.00580   0.01411
 100        3S          0.24580  -0.24048  -0.04399  -0.11951  -0.16526
 101        3PX        -0.01297   0.00924   0.00255  -0.02202  -0.01451
 102        3PY         0.03194  -0.00941   0.00183   0.00713   0.01963
 103        3PZ         0.02041  -0.00573  -0.00906   0.00166   0.00585
 104        4XX        -0.00334   0.00128   0.00050   0.00227   0.00241
 105        4YY         0.01049  -0.00383   0.00117   0.00033   0.00474
 106        4ZZ         0.00256   0.00156  -0.00216  -0.00126   0.00058
 107        4XY        -0.00719   0.00520  -0.00024  -0.00444  -0.00389
 108        4XZ        -0.00549   0.00290   0.00112  -0.00265  -0.00187
 109        4YZ         0.01386  -0.00490  -0.00213  -0.00005   0.00228
 110 8   O  1S         -0.05616  -0.06115  -0.19204   0.03882   0.03525
 111        2S          0.11495   0.13342   0.42379  -0.08943  -0.07504
 112        2PX        -0.00687  -0.00132  -0.00270  -0.05187  -0.07138
 113        2PY        -0.03414  -0.01046  -0.03644  -0.04003  -0.10036
 114        2PZ         0.03106   0.03727   0.07182   0.00107   0.01821
 115        3S          0.13919   0.14421   0.45648  -0.10393  -0.12724
 116        3PX        -0.00700  -0.00307   0.00014  -0.02908  -0.03587
 117        3PY        -0.02385  -0.01008  -0.01800  -0.02015  -0.04672
 118        3PZ         0.02302   0.02366   0.05068  -0.00393   0.00088
 119        4XX        -0.00379  -0.00189  -0.00477   0.00104   0.00202
 120        4YY         0.00328   0.00213   0.00477   0.00012   0.00378
 121        4ZZ         0.00056   0.00151   0.00182  -0.00097   0.00159
 122        4XY         0.00546   0.00402   0.01169  -0.00014  -0.00047
 123        4XZ        -0.00114   0.00094   0.00330  -0.00475  -0.00584
 124        4YZ        -0.00576  -0.00179  -0.00242  -0.00367  -0.00732
 125 9   H  1S          0.01454   0.02505   0.06791  -0.03506  -0.05250
 126        2S          0.00516   0.01120   0.00677  -0.01527  -0.03000
                          21        22        23        24        25
                           O         O         O         O         O
     Eigenvalues --    -0.61611  -0.60918  -0.59633  -0.54990  -0.51074
   1 1   C  1S          0.01264  -0.00034   0.01054  -0.00823  -0.00605
   2        2S         -0.02764   0.00149  -0.02409   0.02224   0.01759
   3        2PX        -0.02406  -0.07566  -0.19626   0.03785   0.01299
   4        2PY         0.32997   0.01440  -0.12520  -0.04508  -0.01809
   5        2PZ         0.06754  -0.32780   0.11580   0.03822  -0.01277
   6        3S         -0.03599   0.00149  -0.01987   0.00170   0.01105
   7        3PX        -0.00993  -0.02033  -0.06631   0.01966   0.02457
   8        3PY         0.09193   0.01203  -0.04054  -0.01082  -0.01756
   9        3PZ         0.01110  -0.10477   0.03680   0.01643  -0.00296
  10        4XX        -0.00265   0.00029   0.00643  -0.00391  -0.00335
  11        4YY         0.00930  -0.00869  -0.00101  -0.00065   0.00236
  12        4ZZ        -0.00545   0.00924  -0.00153   0.00148  -0.00036
  13        4XY        -0.01230  -0.00007   0.00775   0.00962   0.01360
  14        4XZ        -0.00317   0.01265  -0.00826  -0.00829   0.01002
  15        4YZ         0.01102  -0.00111  -0.00527   0.00022   0.00139
  16 2   F  1S         -0.01667   0.05392  -0.00886  -0.00394   0.00143
  17        2S          0.03079  -0.09615   0.01704  -0.00231   0.00073
  18        2PX        -0.06187   0.14167  -0.14433   0.05562  -0.02226
  19        2PY         0.14508   0.05185  -0.07032  -0.05749  -0.06154
  20        2PZ        -0.10690   0.34449  -0.00914  -0.06460   0.06318
  21        3S          0.07015  -0.23912   0.03750   0.03729  -0.00805
  22        3PX        -0.03635   0.07757  -0.08992   0.04422  -0.02114
  23        3PY         0.08912   0.03072  -0.04215  -0.03949  -0.04307
  24        3PZ        -0.06108   0.19477  -0.00350  -0.03587   0.04283
  25        4XX        -0.00308   0.00926  -0.00532  -0.00121  -0.00140
  26        4YY        -0.00086   0.00738  -0.00148  -0.00567   0.00182
  27        4ZZ        -0.00654   0.02114   0.00209  -0.00751   0.00520
  28        4XY         0.00425   0.00138  -0.00219  -0.00058  -0.00020
  29        4XZ        -0.00397   0.00703  -0.00752   0.00257  -0.00036
  30        4YZ         0.00826   0.00260  -0.00339  -0.00315  -0.00276
  31 3   F  1S          0.04781  -0.01492  -0.00473  -0.00249  -0.00199
  32        2S         -0.08320   0.02616   0.01038   0.00042  -0.00640
  33        2PX         0.14721  -0.10401  -0.16947   0.06106   0.16772
  34        2PY        -0.28940   0.16335  -0.06083   0.01868   0.09158
  35        2PZ        -0.17945  -0.14809   0.09854   0.09673   0.02307
  36        3S         -0.21732   0.06835   0.01837   0.01994   0.03193
  37        3PX         0.08152  -0.06312  -0.10834   0.04322   0.11854
  38        3PY        -0.16067   0.09424  -0.03971   0.00710   0.05447
  39        3PZ        -0.10190  -0.09329   0.06065   0.06309   0.01071
  40        4XX         0.00900  -0.00460  -0.00507   0.00035   0.00135
  41        4YY         0.01571  -0.01062   0.00765  -0.00144  -0.00866
  42        4ZZ         0.01042   0.00476  -0.00300  -0.00512  -0.00544
  43        4XY        -0.00638   0.00709   0.00713  -0.00310  -0.00575
  44        4XZ        -0.00424  -0.00214   0.00584  -0.00024  -0.00234
  45        4YZ         0.00709   0.00692  -0.00251  -0.00378  -0.00053
  46 4   F  1S         -0.03657  -0.02343   0.03404   0.00623   0.00095
  47        2S          0.06766   0.04222  -0.05610  -0.00904  -0.00008
  48        2PX        -0.16878  -0.14682   0.04819   0.05586   0.02185
  49        2PY        -0.08637  -0.15033   0.23513   0.05858  -0.03114
  50        2PZ         0.18977  -0.04952  -0.13684  -0.02556  -0.08425
  51        3S          0.15702   0.10560  -0.15945  -0.02799  -0.00503
  52        3PX        -0.09891  -0.08715   0.01742   0.03237   0.01186
  53        3PY        -0.04454  -0.08581   0.13785   0.03717  -0.02236
  54        3PZ         0.11129  -0.03418  -0.07772  -0.01584  -0.05994
  55        4XX        -0.00980  -0.00871   0.00411   0.00172   0.00033
  56        4YY        -0.00284  -0.00880   0.01593   0.00351  -0.00180
  57        4ZZ        -0.01007   0.00174   0.00959   0.00233   0.00461
  58        4XY        -0.00432  -0.00778   0.00258   0.00288   0.00046
  59        4XZ         0.00787  -0.00002  -0.00095  -0.00154  -0.00148
  60        4YZ         0.00489  -0.00196  -0.00612  -0.00051  -0.00204
  61 5   S  1S          0.00863   0.00565   0.02224  -0.02234  -0.00054
  62        2S         -0.03670  -0.02273  -0.09259   0.09219   0.00011
  63        2PX        -0.04629  -0.04226  -0.09304   0.02345  -0.04330
  64        2PY        -0.04749  -0.03016  -0.03608  -0.10745  -0.11117
  65        2PZ         0.02204   0.04376   0.03152   0.09450  -0.09745
  66        3S          0.09996   0.06966   0.26619  -0.27701  -0.01566
  67        3PX         0.12013   0.10864   0.24019  -0.06075   0.11696
  68        3PY         0.12418   0.07857   0.09452   0.28282   0.30040
  69        3PZ        -0.05691  -0.11544  -0.08187  -0.25242   0.26782
  70        4S          0.01407  -0.01428   0.00335  -0.01030   0.01390
  71        4PX         0.01681   0.02253   0.04434  -0.00534   0.04256
  72        4PY         0.02592   0.00403   0.01370   0.05197   0.06925
  73        4PZ         0.00095  -0.01694  -0.00613  -0.05335   0.04594
  74        5XX        -0.01357  -0.00880  -0.01763   0.00430   0.01793
  75        5YY         0.00460  -0.00246  -0.00263  -0.00431   0.00094
  76        5ZZ         0.00303   0.00813   0.00243   0.02842  -0.01280
  77        5XY        -0.01435   0.00427   0.01364   0.01032   0.00470
  78        5XZ        -0.00963   0.01519  -0.01483  -0.00998   0.00442
  79        5YZ        -0.00682  -0.01039  -0.01825  -0.01035  -0.00025
  80 6   O  1S          0.01692  -0.00420   0.04089  -0.07490   0.06341
  81        2S         -0.03609   0.01050  -0.09216   0.16207  -0.13016
  82        2PX         0.00838   0.04116   0.01977   0.07439  -0.07156
  83        2PY         0.01884   0.01296  -0.00352   0.13015   0.07157
  84        2PZ        -0.04387  -0.01952  -0.11313   0.19121  -0.24569
  85        3S         -0.06434   0.01998  -0.13815   0.29266  -0.28983
  86        3PX         0.00501   0.02310   0.01063   0.02891  -0.02710
  87        3PY         0.00732   0.00580  -0.00285   0.06747   0.05013
  88        3PZ        -0.01887  -0.01334  -0.05528   0.08680  -0.11035
  89        4XX        -0.00030  -0.00257  -0.00249  -0.00400   0.00464
  90        4YY        -0.00003   0.00002  -0.00096  -0.00498   0.00192
  91        4ZZ         0.00593   0.00334   0.01201  -0.01505   0.02054
  92        4XY        -0.00152  -0.00102  -0.00067  -0.00463  -0.00369
  93        4XZ        -0.00016  -0.00248  -0.00028  -0.00620   0.00608
  94        4YZ        -0.00114  -0.00119   0.00047  -0.00964  -0.00631
  95 7   O  1S          0.00804   0.01828   0.04904  -0.05682  -0.06843
  96        2S         -0.01672  -0.04125  -0.11178   0.12475   0.14062
  97        2PX         0.04795   0.01574   0.04937   0.04098   0.20166
  98        2PY         0.05329   0.06489   0.14198  -0.05434  -0.22698
  99        2PZ        -0.00852  -0.01365   0.04457  -0.26227  -0.11707
 100        3S         -0.02320  -0.06457  -0.16629   0.21958   0.32302
 101        3PX         0.02829   0.00713   0.02695   0.01427   0.09882
 102        3PY         0.02549   0.03068   0.06808  -0.01481  -0.09995
 103        3PZ        -0.00504  -0.00842   0.01789  -0.13537  -0.03849
 104        4XX        -0.00245  -0.00114  -0.00438  -0.00047  -0.00927
 105        4YY         0.00633   0.00720   0.01281   0.00207  -0.01481
 106        4ZZ        -0.00063  -0.00178   0.00088  -0.01781  -0.00528
 107        4XY         0.00212  -0.00009   0.00182   0.00014   0.01448
 108        4XZ         0.00307   0.00230   0.00268   0.00736   0.00849
 109        4YZ         0.00067   0.00153   0.00675  -0.01430  -0.00641
 110 8   O  1S          0.02440   0.01868   0.03088   0.00830   0.03289
 111        2S         -0.05489  -0.04316  -0.06628  -0.00751  -0.07370
 112        2PX        -0.05735  -0.05147  -0.04777  -0.14068   0.03245
 113        2PY        -0.12052  -0.11811  -0.21468  -0.20144   0.00184
 114        2PZ         0.02422   0.00778   0.03951  -0.03341   0.18637
 115        3S         -0.08362  -0.05975  -0.10452  -0.06521  -0.12951
 116        3PX        -0.03578  -0.03399  -0.02349  -0.08365   0.02453
 117        3PY        -0.06588  -0.06606  -0.12324  -0.11011   0.01103
 118        3PZ         0.00529   0.00064   0.01550  -0.03785   0.11686
 119        4XX        -0.00017  -0.00053  -0.00156   0.00353  -0.00126
 120        4YY         0.00252   0.00242   0.00825   0.00784  -0.00369
 121        4ZZ         0.00024  -0.00111   0.00265  -0.00075   0.01486
 122        4XY        -0.00146  -0.00090  -0.00301  -0.00068  -0.00268
 123        4XZ        -0.00490  -0.00378  -0.00429  -0.00902   0.00133
 124        4YZ        -0.00771  -0.00723  -0.01418  -0.00881  -0.00269
 125 9   H  1S         -0.05151  -0.05143  -0.07724  -0.10486   0.04906
 126        2S         -0.03307  -0.02750  -0.05123  -0.06406   0.02625
                          26        27        28        29        30
                           O         O         O         O         O
     Eigenvalues --    -0.49505  -0.48828  -0.48348  -0.46322  -0.45594
   1 1   C  1S         -0.01410   0.00051  -0.01223  -0.00237   0.00064
   2        2S          0.04270  -0.00071   0.03238   0.00439  -0.00252
   3        2PX         0.02065   0.00962   0.02042   0.02743  -0.00964
   4        2PY         0.00904   0.03216  -0.04645  -0.00398  -0.03002
   5        2PZ         0.00106  -0.07647  -0.01214   0.01524  -0.01610
   6        3S          0.01077  -0.00211   0.03572   0.02002   0.00723
   7        3PX         0.09619  -0.00991   0.07810  -0.01280  -0.02451
   8        3PY        -0.04144  -0.02075   0.05384  -0.05704   0.08378
   9        3PZ        -0.00846   0.05873   0.03225  -0.02841   0.03717
  10        4XX        -0.02334   0.00276  -0.01617   0.00736   0.00766
  11        4YY         0.01153  -0.02768  -0.00780   0.00055  -0.01451
  12        4ZZ         0.00338   0.02576   0.01853  -0.00583   0.00994
  13        4XY         0.01321  -0.00196  -0.00891  -0.00348   0.01667
  14        4XZ         0.00182  -0.00873  -0.00816  -0.00490   0.00914
  15        4YZ         0.01309   0.02255  -0.02453  -0.00426  -0.01390
  16 2   F  1S         -0.00065   0.00517  -0.00026  -0.00000   0.00009
  17        2S         -0.00329  -0.01009  -0.00607   0.00618   0.00298
  18        2PX         0.14661   0.25444   0.29746  -0.01611  -0.20487
  19        2PY        -0.16702  -0.12379   0.29318   0.01281   0.30467
  20        2PZ         0.00467   0.11129  -0.05090  -0.07322   0.17290
  21        3S          0.02241  -0.00330   0.03088  -0.02434   0.00412
  22        3PX         0.09496   0.18120   0.20454  -0.01301  -0.13481
  23        3PY        -0.11322  -0.08649   0.20319   0.01556   0.19759
  24        3PZ         0.01339   0.07543  -0.02551  -0.05590   0.11661
  25        4XX        -0.00074   0.00742   0.00314   0.00390  -0.00391
  26        4YY        -0.00303  -0.00528  -0.00318   0.00390  -0.00033
  27        4ZZ        -0.00027   0.00277  -0.00599  -0.00101   0.00880
  28        4XY        -0.00078  -0.00101   0.00395  -0.00103   0.00468
  29        4XZ         0.00578   0.01065   0.01074  -0.00110  -0.00435
  30        4YZ        -0.00655  -0.00409   0.01092   0.00243   0.00791
  31 3   F  1S         -0.00124   0.00010  -0.00162  -0.00124   0.00470
  32        2S         -0.00721   0.00037   0.00397  -0.00972  -0.00970
  33        2PX         0.41490  -0.08947  -0.12442  -0.10722   0.26905
  34        2PY         0.00971  -0.20150   0.07598   0.00323   0.25338
  35        2PZ         0.09301   0.41691  -0.00856  -0.09829   0.17044
  36        3S          0.04767  -0.00398  -0.00637   0.03935  -0.05216
  37        3PX         0.27924  -0.06171  -0.09774  -0.06857   0.17531
  38        3PY        -0.00618  -0.13665   0.04885  -0.00473   0.17802
  39        3PZ         0.05797   0.28410  -0.00932  -0.06917   0.11771
  40        4XX         0.00297  -0.00146  -0.00493  -0.00685   0.00896
  41        4YY        -0.00467   0.01182   0.00002  -0.00527  -0.00910
  42        4ZZ        -0.00823  -0.00979   0.00492  -0.00308   0.00066
  43        4XY        -0.01406   0.00095   0.00525   0.00262  -0.00429
  44        4XZ        -0.00524   0.00553   0.00128  -0.00007  -0.00103
  45        4YZ        -0.00240  -0.01078  -0.00087   0.00297  -0.00860
  46 4   F  1S         -0.00137  -0.00538   0.00118   0.00144   0.00018
  47        2S         -0.00315   0.01218  -0.00826   0.01052   0.00245
  48        2PX         0.10190  -0.26700   0.31608  -0.00920  -0.15108
  49        2PY        -0.09110   0.05292   0.12417   0.02398   0.29543
  50        2PZ        -0.08244   0.19698   0.25918  -0.00606   0.09832
  51        3S          0.02623   0.00121   0.02444  -0.03935   0.00342
  52        3PX         0.06528  -0.18969   0.21996  -0.01083  -0.09871
  53        3PY        -0.05294   0.03786   0.09169   0.01334   0.19505
  54        3PZ        -0.06260   0.13622   0.17390   0.00766   0.06065
  55        4XX        -0.00206  -0.00872   0.00711   0.00563  -0.00381
  56        4YY        -0.00593   0.00766   0.00217   0.00756   0.00979
  57        4ZZ         0.00168  -0.00206  -0.01351   0.00372  -0.00158
  58        4XY         0.00247  -0.00628   0.01085  -0.00021   0.00216
  59        4XZ        -0.00369   0.00757  -0.00208   0.00034   0.00512
  60        4YZ        -0.00109   0.00500   0.00398   0.00043  -0.00343
  61 5   S  1S         -0.00431   0.00197  -0.00409   0.00471   0.00137
  62        2S          0.01648  -0.00917   0.01730  -0.01999  -0.00535
  63        2PX        -0.09821   0.00347  -0.05994   0.01626   0.01568
  64        2PY         0.04825  -0.00648  -0.00749  -0.02724   0.01119
  65        2PZ         0.04996  -0.00991  -0.00873   0.07622   0.01760
  66        3S         -0.05277   0.02086  -0.04770   0.05536   0.01823
  67        3PX         0.27043  -0.01052   0.16575  -0.04791  -0.04605
  68        3PY        -0.13294   0.01819   0.01739   0.07224  -0.03300
  69        3PZ        -0.13591   0.02466   0.02229  -0.20789  -0.04933
  70        4S         -0.03496   0.01010  -0.02869   0.00290   0.00247
  71        4PX         0.09076   0.00039   0.05593   0.00795  -0.01286
  72        4PY         0.02706   0.02842  -0.06608   0.10090   0.06336
  73        4PZ         0.00811  -0.05682  -0.02896   0.00869   0.04527
  74        5XX         0.01882   0.00032   0.02288   0.01327  -0.00796
  75        5YY        -0.00910  -0.00296  -0.01558   0.01739   0.01159
  76        5ZZ        -0.01996   0.00123  -0.00757  -0.03120  -0.00484
  77        5XY        -0.01961   0.00017  -0.00179   0.02795  -0.01342
  78        5XZ        -0.01047   0.01284  -0.00057  -0.00283  -0.01191
  79        5YZ         0.00630   0.01045  -0.01216   0.07051   0.01352
  80 6   O  1S         -0.01343   0.00780   0.00823  -0.01847  -0.00675
  81        2S          0.03394  -0.02806  -0.02261   0.03588   0.01975
  82        2PX         0.15665  -0.01744   0.06079   0.10345  -0.01591
  83        2PY        -0.02794   0.01674  -0.02307   0.23156   0.03109
  84        2PZ         0.02196  -0.04112  -0.06536   0.07380   0.06715
  85        3S          0.03124   0.00553  -0.01790   0.07964   0.00398
  86        3PX         0.09055  -0.01519   0.03586   0.06571  -0.01128
  87        3PY        -0.02091   0.00578  -0.00541   0.14983   0.01256
  88        3PZ         0.01194  -0.02576  -0.03706   0.02389   0.04090
  89        4XX        -0.00571  -0.00349  -0.00497  -0.00570   0.00375
  90        4YY         0.00238  -0.00448  -0.00201  -0.00347   0.00230
  91        4ZZ         0.00457  -0.00270   0.00504  -0.00302  -0.00264
  92        4XY        -0.00051  -0.00035  -0.00038  -0.00588  -0.00075
  93        4XZ        -0.01084   0.00172  -0.00375  -0.00721   0.00074
  94        4YZ         0.00373  -0.00097   0.00055  -0.01604  -0.00108
  95 7   O  1S          0.04007  -0.00216  -0.00157   0.01307   0.00471
  96        2S         -0.08857   0.00492   0.01814  -0.03549  -0.01801
  97        2PX         0.08636  -0.01017   0.13313  -0.12534  -0.02767
  98        2PY         0.20981  -0.01126   0.00803   0.15775   0.05843
  99        2PZ         0.12595  -0.01159   0.00885  -0.05856   0.03897
 100        3S         -0.16784   0.00529  -0.04801  -0.01741   0.01812
 101        3PX         0.05422  -0.01102   0.08508  -0.08732  -0.01406
 102        3PY         0.09877  -0.01154   0.00293   0.08250   0.03339
 103        3PZ         0.05636   0.00304  -0.00213  -0.04008   0.02443
 104        4XX        -0.00636   0.00094  -0.00018   0.00215  -0.00372
 105        4YY         0.01297  -0.00212   0.00891   0.00665  -0.00102
 106        4ZZ         0.00312   0.00022   0.00709  -0.01425  -0.00280
 107        4XY         0.00397  -0.00077   0.00851  -0.00922  -0.00212
 108        4XZ         0.00404   0.00001   0.00631  -0.00140  -0.00169
 109        4YZ         0.01026   0.00011   0.00240  -0.00073   0.00196
 110 8   O  1S          0.00609   0.00866   0.00472   0.06120   0.00303
 111        2S         -0.01060  -0.00976  -0.01614  -0.13313  -0.00570
 112        2PX         0.10585   0.03762   0.05209   0.17744  -0.02287
 113        2PY        -0.01864   0.04161  -0.03376   0.10877   0.04161
 114        2PZ        -0.00594   0.03993   0.01271   0.32578   0.01597
 115        3S         -0.04108  -0.06727  -0.00118  -0.26967  -0.02073
 116        3PX         0.06763   0.02981   0.02908   0.12645  -0.01670
 117        3PY        -0.00604   0.03579  -0.02462   0.07710   0.02763
 118        3PZ        -0.01031   0.02525   0.01042   0.21261   0.00360
 119        4XX         0.00094   0.00384  -0.00230   0.00109   0.00113
 120        4YY         0.00334   0.00193  -0.00163  -0.00214  -0.00025
 121        4ZZ        -0.00037   0.00796  -0.00092   0.02760   0.00092
 122        4XY        -0.00383   0.00023  -0.00242  -0.00088   0.00093
 123        4XZ         0.00649   0.00295   0.00346   0.01227  -0.00150
 124        4YZ         0.00046   0.00180  -0.00226   0.00439   0.00259
 125 9   H  1S          0.02275   0.03558   0.00433   0.18071   0.01327
 126        2S          0.01421   0.02335   0.01253   0.15374   0.00723
                          31        32        33        34        35
                           O         O         O         O         O
     Eigenvalues --    -0.44767  -0.43161  -0.40316  -0.38537  -0.37057
   1 1   C  1S          0.00054   0.00011   0.00061  -0.04219  -0.01512
   2        2S         -0.00031  -0.00075  -0.00375   0.07762   0.02369
   3        2PX        -0.00709  -0.00076  -0.00286   0.22480   0.07188
   4        2PY        -0.01734   0.00423   0.00027  -0.02085  -0.00815
   5        2PZ         0.02929  -0.01124  -0.00107   0.00812   0.00151
   6        3S         -0.00425   0.00100   0.01018   0.31470   0.13846
   7        3PX         0.00346  -0.00151   0.00719   0.08244   0.04000
   8        3PY         0.04445  -0.01243   0.02176   0.02294  -0.04393
   9        3PZ        -0.05562   0.03747  -0.08025   0.02672  -0.01423
  10        4XX         0.00292  -0.00082  -0.00017   0.02552   0.00633
  11        4YY         0.00474  -0.00365  -0.00087  -0.01242  -0.00285
  12        4ZZ        -0.00717   0.00425   0.00105  -0.01311  -0.00507
  13        4XY         0.01195  -0.00194   0.00190  -0.00340  -0.00597
  14        4XZ        -0.02061   0.00374  -0.00265   0.00303  -0.00163
  15        4YZ        -0.00500   0.00321   0.00051  -0.00006   0.00018
  16 2   F  1S          0.00130  -0.00172   0.00186   0.00211   0.00218
  17        2S         -0.00500   0.00298   0.01459  -0.00030   0.00123
  18        2PX         0.30890  -0.09588   0.00904  -0.12624  -0.07417
  19        2PY        -0.05573  -0.41908  -0.02984  -0.01199   0.04827
  20        2PZ        -0.27348   0.12953  -0.00658  -0.03919  -0.01059
  21        3S         -0.01772   0.01817  -0.05820  -0.02926  -0.03223
  22        3PX         0.20616  -0.06045   0.00019  -0.09765  -0.05622
  23        3PY        -0.04550  -0.28091  -0.02506  -0.01188   0.03774
  24        3PZ        -0.18779   0.09069  -0.01748  -0.03589  -0.01593
  25        4XX         0.00848  -0.00301   0.00807   0.00244   0.00249
  26        4YY         0.00080  -0.00289   0.00764   0.00195   0.00255
  27        4ZZ        -0.01289   0.00546   0.00704  -0.00034   0.00155
  28        4XY         0.00061  -0.00754   0.00000  -0.00010  -0.00045
  29        4XZ         0.00516  -0.00017  -0.00065  -0.00252  -0.00172
  30        4YZ        -0.00419  -0.01006  -0.00181  -0.00162   0.00244
  31 3   F  1S          0.00069   0.00030  -0.00051   0.00594  -0.00189
  32        2S         -0.00002  -0.00015  -0.00629   0.00700   0.00273
  33        2PX         0.05172   0.02662  -0.02418  -0.17585   0.03851
  34        2PY         0.13783   0.11997  -0.01773   0.03390   0.02048
  35        2PZ        -0.22927  -0.24043   0.01932  -0.01012   0.00302
  36        3S         -0.00961  -0.00326   0.01780  -0.09154   0.01673
  37        3PX         0.03299   0.01729  -0.01320  -0.13552   0.02286
  38        3PY         0.08916   0.08220  -0.01920   0.04290   0.01212
  39        3PZ        -0.14200  -0.16357   0.02272   0.00004   0.00168
  40        4XX         0.00223   0.00091  -0.00322   0.00914  -0.00011
  41        4YY        -0.00378  -0.00525  -0.00083   0.00622  -0.00137
  42        4ZZ         0.00322   0.00495  -0.00579   0.00860  -0.00036
  43        4XY         0.00189   0.00158   0.00086   0.00343  -0.00178
  44        4XZ        -0.00578  -0.00468  -0.00041   0.00165  -0.00041
  45        4YZ         0.00257   0.00489  -0.00198  -0.00041  -0.00036
  46 4   F  1S         -0.00155   0.00134  -0.00156   0.00301   0.00239
  47        2S          0.00440  -0.00306  -0.01160  -0.00262   0.00157
  48        2PX        -0.29171   0.05122   0.01329  -0.18030  -0.08892
  49        2PY         0.32007   0.18505   0.00883  -0.01489   0.02828
  50        2PZ        -0.16450   0.42594   0.01530  -0.01868   0.02133
  51        3S          0.02554  -0.01372   0.04681  -0.03678  -0.03560
  52        3PX        -0.19352   0.03093   0.01503  -0.13532  -0.06804
  53        3PY         0.22389   0.12173   0.01740  -0.02168   0.01569
  54        3PZ        -0.11172   0.28740   0.01093  -0.01105   0.02399
  55        4XX        -0.01063   0.00150  -0.00607   0.00085   0.00219
  56        4YY         0.01184   0.00593  -0.00463  -0.00062   0.00423
  57        4ZZ         0.00168  -0.00825  -0.00793   0.00278   0.00101
  58        4XY        -0.00082   0.00472   0.00079  -0.00365  -0.00157
  59        4XZ         0.00108   0.00804  -0.00023   0.00200   0.00153
  60        4YZ        -0.00875   0.00623   0.00103   0.00007   0.00053
  61 5   S  1S          0.00048  -0.00017  -0.00241   0.00220   0.00072
  62        2S         -0.00258   0.00082   0.00978  -0.00462  -0.00031
  63        2PX        -0.00352  -0.00011  -0.00260   0.03537   0.01790
  64        2PY         0.00702   0.00011   0.00090  -0.00886   0.00479
  65        2PZ        -0.01658   0.00066   0.01812   0.01053  -0.00045
  66        3S          0.00505  -0.00182  -0.03250   0.03522   0.01222
  67        3PX         0.00880   0.00046   0.00611  -0.11521  -0.05500
  68        3PY        -0.02071   0.00041   0.00026   0.02567  -0.01220
  69        3PZ         0.04797  -0.00240  -0.05290  -0.03158   0.00100
  70        4S          0.00227  -0.00407   0.00974   0.00361  -0.00445
  71        4PX         0.00113   0.00101   0.01705   0.14469   0.09941
  72        4PY         0.01689  -0.00289  -0.03346  -0.02659  -0.13350
  73        4PZ        -0.06332   0.00730   0.13121   0.03017  -0.04257
  74        5XX        -0.00336  -0.00058   0.00221   0.11113   0.05063
  75        5YY        -0.00324  -0.00277   0.11246  -0.04551  -0.01816
  76        5ZZ         0.00390   0.00370  -0.11112  -0.04755  -0.01837
  77        5XY        -0.00849   0.00031  -0.01189  -0.06912   0.07320
  78        5XZ         0.01795  -0.00430   0.02353  -0.05639   0.04714
  79        5YZ        -0.00151  -0.00205  -0.06272  -0.05238  -0.06042
  80 6   O  1S          0.00488  -0.00006  -0.01297  -0.00920  -0.00159
  81        2S         -0.01757   0.00111   0.03686   0.02134   0.00056
  82        2PX        -0.00299  -0.01027   0.22104   0.06377   0.25474
  83        2PY        -0.03401  -0.00819  -0.00510  -0.10815  -0.18013
  84        2PZ        -0.05434   0.00910   0.13270   0.20057  -0.06447
  85        3S          0.01011  -0.00315  -0.00615   0.00771   0.02056
  86        3PX        -0.00305  -0.00736   0.16063   0.02171   0.17165
  87        3PY        -0.03035  -0.00718   0.00437  -0.08008  -0.10951
  88        3PZ        -0.03318   0.00707   0.07166   0.13121  -0.04769
  89        4XX        -0.00371   0.00111  -0.00425   0.00617  -0.01135
  90        4YY        -0.00233   0.00047   0.00892   0.00430   0.00107
  91        4ZZ        -0.00006  -0.00057   0.00508  -0.00774   0.00505
  92        4XY         0.00071   0.00062  -0.00185   0.00234   0.00476
  93        4XZ         0.00097   0.00035  -0.01083  -0.00280  -0.01460
  94        4YZ         0.00305   0.00050   0.00040   0.00712   0.00957
  95 7   O  1S          0.00005  -0.00015  -0.00175  -0.00251   0.00225
  96        2S          0.00141  -0.00145  -0.00065   0.01087  -0.00056
  97        2PX        -0.00199   0.00474  -0.00744   0.45498  -0.20422
  98        2PY        -0.02070   0.00667  -0.26056   0.04321  -0.24703
  99        2PZ         0.01494  -0.00870   0.35376   0.04067  -0.08195
 100        3S         -0.01011   0.00525   0.02624  -0.01406  -0.06379
 101        3PX        -0.00329   0.00166  -0.01361   0.30556  -0.16021
 102        3PY        -0.01957   0.00770  -0.17633   0.03649  -0.15539
 103        3PZ         0.01914  -0.00862   0.23767   0.02372  -0.05413
 104        4XX         0.00076  -0.00072  -0.00055  -0.01209   0.01718
 105        4YY        -0.00237   0.00026  -0.02537   0.01149  -0.00877
 106        4ZZ         0.00324  -0.00145   0.02203   0.00659   0.00396
 107        4XY        -0.00037  -0.00010   0.00395   0.02187  -0.01041
 108        4XZ         0.00003   0.00044  -0.00853   0.01541  -0.01059
 109        4YZ         0.00111  -0.00025   0.01014   0.00569  -0.00807
 110 8   O  1S         -0.00274  -0.00196   0.00427   0.00958   0.00067
 111        2S          0.01155   0.00373  -0.01747  -0.02131  -0.00294
 112        2PX        -0.03342   0.00486  -0.26417   0.14193   0.33835
 113        2PY         0.04210  -0.01328  -0.03794  -0.00028  -0.26881
 114        2PZ        -0.03273  -0.00837   0.24261  -0.00302  -0.01883
 115        3S         -0.01386   0.01158   0.03596  -0.04370   0.02067
 116        3PX        -0.02573   0.00435  -0.20241   0.09222   0.23791
 117        3PY         0.04004  -0.00885  -0.02903  -0.00012  -0.19336
 118        3PZ        -0.02109  -0.00309   0.17957  -0.01528  -0.00269
 119        4XX         0.00351  -0.00062  -0.00413   0.00418  -0.00086
 120        4YY        -0.00010   0.00047  -0.01022   0.00264   0.00475
 121        4ZZ         0.00039  -0.00103   0.01074  -0.00318  -0.00344
 122        4XY         0.00086  -0.00047   0.00503  -0.00171  -0.00525
 123        4XZ        -0.00143  -0.00038  -0.01276   0.00539   0.01570
 124        4YZ         0.00219  -0.00047  -0.00864   0.00252  -0.01171
 125 9   H  1S         -0.00470  -0.00646  -0.02291   0.04224   0.00040
 126        2S         -0.00559  -0.00613  -0.02010   0.02719   0.00604
                          36        37        38        39        40
                           O         O         V         V         V
     Eigenvalues --    -0.35791  -0.34322  -0.06141  -0.02763   0.00637
   1 1   C  1S         -0.02337  -0.01315   0.03982   0.06765  -0.10534
   2        2S          0.04230   0.02604  -0.09098  -0.15319   0.25208
   3        2PX         0.11488   0.06200  -0.11777  -0.24790   0.23546
   4        2PY        -0.01240  -0.00745   0.08432  -0.17220  -0.21965
   5        2PZ         0.00234   0.00373  -0.10144   0.15315  -0.03290
   6        3S          0.17293   0.08660  -0.27461  -0.50530   0.68430
   7        3PX         0.05030   0.02240  -0.08713  -0.25391   0.16788
   8        3PY         0.00094  -0.04138   0.18729  -0.24324  -0.25284
   9        3PZ        -0.04553   0.01740  -0.12759   0.19597  -0.04462
  10        4XX         0.01112   0.00493   0.00447  -0.00217  -0.01971
  11        4YY        -0.00552  -0.00317   0.00461   0.00793   0.00285
  12        4ZZ        -0.00651  -0.00274  -0.00101   0.00912  -0.00818
  13        4XY        -0.00185  -0.00135   0.00941  -0.02935  -0.02083
  14        4XZ        -0.00378   0.00262  -0.01626   0.02070  -0.00640
  15        4YZ         0.00054  -0.00048  -0.00008   0.00593   0.00561
  16 2   F  1S          0.00512   0.00045   0.00644  -0.02049   0.02112
  17        2S          0.00092   0.00157  -0.01396   0.03356  -0.05066
  18        2PX        -0.13419  -0.01374  -0.02970   0.12670  -0.11141
  19        2PY        -0.00207  -0.00167  -0.03309   0.06709   0.05137
  20        2PZ        -0.00888  -0.00828  -0.01037   0.08909  -0.10804
  21        3S         -0.06651  -0.00740  -0.04964   0.17698  -0.14981
  22        3PX        -0.10239  -0.01309  -0.02138   0.12462  -0.09468
[...]
 125 9   H  1S         -0.00000   0.00006  -0.00001  -0.00000   0.00000
 126        2S         -0.00010   0.00127  -0.00022   0.00000   0.00003
                         106       107       108       109       110
 106        4ZZ         0.00290
 107        4XY         0.00000   0.00239
 108        4XZ        -0.00000  -0.00000   0.00148
 109        4YZ        -0.00000   0.00000  -0.00000   0.00176
 110 8   O  1S         -0.00000  -0.00000  -0.00000   0.00000   2.07916
 111        2S          0.00000   0.00000   0.00000   0.00000  -0.04335
 112        2PX        -0.00000   0.00000   0.00000  -0.00000   0.00000
 113        2PY         0.00000   0.00000   0.00000   0.00000   0.00000
 114        2PZ         0.00000  -0.00000  -0.00000   0.00000   0.00000
 115        3S          0.00012   0.00000   0.00000  -0.00000  -0.04370
 116        3PX         0.00000   0.00001   0.00000  -0.00000   0.00000
 117        3PY         0.00018   0.00000   0.00000   0.00001   0.00000
 118        3PZ        -0.00000  -0.00000  -0.00000   0.00001   0.00000
 119        4XX        -0.00000  -0.00000   0.00000   0.00000  -0.00044
 120        4YY        -0.00000  -0.00000  -0.00000   0.00000  -0.00059
 121        4ZZ        -0.00000  -0.00000   0.00000  -0.00000  -0.00039
 122        4XY        -0.00000   0.00000  -0.00000  -0.00000  -0.00000
 123        4XZ        -0.00000  -0.00000  -0.00000   0.00000  -0.00000
 124        4YZ        -0.00000  -0.00000  -0.00000   0.00000   0.00000
 125 9   H  1S         -0.00000  -0.00000   0.00000   0.00000  -0.00019
 126        2S         -0.00001  -0.00000   0.00000  -0.00000   0.00036
                         111       112       113       114       115
 111        2S          0.52183
 112        2PX         0.00000   0.70749
 113        2PY         0.00000  -0.00000   0.59645
 114        2PZ         0.00000  -0.00000  -0.00000   0.65804
 115        3S          0.47382   0.00000   0.00000   0.00000   0.80828
 116        3PX         0.00000   0.25184  -0.00000  -0.00000   0.00000
 117        3PY         0.00000  -0.00000   0.19664   0.00000   0.00000
 118        3PZ         0.00000  -0.00000  -0.00000   0.22592   0.00000
 119        4XX        -0.00313   0.00000   0.00000   0.00000  -0.00628
 120        4YY         0.00229   0.00000   0.00000   0.00000   0.00179
 121        4ZZ        -0.00519   0.00000   0.00000   0.00000  -0.01239
 122        4XY         0.00000   0.00000   0.00000   0.00000   0.00000
 123        4XZ         0.00000   0.00000   0.00000   0.00000   0.00000
 124        4YZ        -0.00000   0.00000   0.00000   0.00000   0.00000
 125 9   H  1S          0.00430   0.01110   0.01388   0.01612   0.00354
 126        2S         -0.00572   0.00751   0.00972   0.01074  -0.02913
                         116       117       118       119       120
 116        3PX         0.35910
 117        3PY        -0.00000   0.26406
 118        3PZ        -0.00000  -0.00000   0.31148
 119        4XX         0.00000   0.00000   0.00000   0.00053
 120        4YY         0.00000   0.00000   0.00000   0.00007   0.00090
 121        4ZZ         0.00000   0.00000   0.00000  -0.00002  -0.00010
 122        4XY         0.00000   0.00000   0.00000  -0.00000  -0.00000
 123        4XZ         0.00000   0.00000   0.00000  -0.00000   0.00000
 124        4YZ         0.00000   0.00000   0.00000  -0.00000   0.00000
 125 9   H  1S          0.02393   0.02791   0.03753  -0.00017  -0.00063
 126        2S          0.01722   0.02126   0.02604   0.00002  -0.00092
                         121       122       123       124       125
 121        4ZZ         0.00277
 122        4XY         0.00000   0.00067
 123        4XZ         0.00000   0.00000   0.00188
 124        4YZ         0.00000   0.00000   0.00000   0.00184
 125 9   H  1S          0.00229   0.00038   0.00161   0.00143   0.15189
 126        2S          0.00327   0.00003   0.00036   0.00033   0.06850
                         126
 126        2S          0.07802
     Gross orbital populations:
                           1
   1 1   C  1S          1.99221
   2        2S          0.72209
   3        2PX         0.66425
   4        2PY         0.54045
   5        2PZ         0.53332
   6        3S          0.37270
   7        3PX         0.18521
   8        3PY         0.12756
   9        3PZ         0.13453
  10        4XX         0.01519
  11        4YY         0.00699
  12        4ZZ         0.00437
  13        4XY         0.02272
  14        4XZ         0.02042
  15        4YZ         0.03076
  16 2   F  1S          1.99335
  17        2S          0.95541
  18        2PX         1.13460
  19        2PY         1.19079
  20        2PZ         0.95744
  21        3S          0.98141
  22        3PX         0.69615
  23        3PY         0.71706
  24        3PZ         0.56859
  25        4XX         0.01024
  26        4YY         0.00593
  27        4ZZ         0.02976
  28        4XY         0.00068
  29        4XZ         0.00502
  30        4YZ         0.00287
  31 3   F  1S          1.99331
  32        2S          0.95684
  33        2PX         1.14734
  34        2PY         0.99457
  35        2PZ         1.15249
  36        3S          0.96788
  37        3PX         0.69350
  38        3PY         0.57486
  39        3PZ         0.68240
  40        4XX         0.01045
  41        4YY         0.02666
  42        4ZZ         0.01030
  43        4XY         0.00452
  44        4XZ         0.00137
  45        4YZ         0.00474
  46 4   F  1S          1.99335
  47        2S          0.95521
  48        2PX         1.09974
  49        2PY         1.05336
  50        2PZ         1.12823
  51        3S          0.98287
  52        3PX         0.67913
  53        3PY         0.63319
  54        3PZ         0.67857
  55        4XX         0.01298
  56        4YY         0.01881
  57        4ZZ         0.01132
  58        4XY         0.00414
  59        4XZ         0.00246
  60        4YZ         0.00411
  61 5   S  1S          1.99861
  62        2S          1.98810
  63        2PX         1.98867
  64        2PY         1.98859
  65        2PZ         1.98882
  66        3S          1.34282
  67        3PX         0.90499
  68        3PY         0.83703
  69        3PZ         0.85589
  70        4S         -0.05077
  71        4PX         0.16045
  72        4PY         0.15261
  73        4PZ         0.11232
  74        5XX         0.07330
  75        5YY         0.06559
  76        5ZZ         0.07667
  77        5XY         0.08417
  78        5XZ         0.10308
  79        5YZ         0.15917
  80 6   O  1S          1.99269
  81        2S          0.93075
  82        2PX         0.95426
  83        2PY         1.01106
  84        2PZ         0.87748
  85        3S          1.00554
  86        3PX         0.61761
  87        3PY         0.65623
  88        3PZ         0.42941
  89        4XX        -0.00595
  90        4YY        -0.00990
  91        4ZZ         0.01104
  92        4XY         0.00191
  93        4XZ         0.00904
  94        4YZ         0.00762
  95 7   O  1S          1.99255
  96        2S          0.93597
  97        2PX         0.97952
  98        2PY         0.94244
  99        2PZ         0.96692
 100        3S          0.93818
 101        3PX         0.60486
 102        3PY         0.45429
 103        3PZ         0.53618
 104        4XX        -0.00361
 105        4YY         0.00901
 106        4ZZ         0.00141
 107        4XY         0.00815
 108        4XZ         0.00498
 109        4YZ         0.00902
 110 8   O  1S          1.99274
 111        2S          0.92171
 112        2PX         0.99712
 113        2PY         0.86405
 114        2PZ         0.93895
 115        3S          1.03756
 116        3PX         0.68824
 117        3PY         0.54442
 118        3PZ         0.62653
 119        4XX        -0.00758
 120        4YY         0.00816
 121        4ZZ        -0.00440
 122        4XY         0.00206
 123        4XZ         0.00516
 124        4YZ         0.00842
 125 9   H  1S          0.36357
 126        2S          0.21377
          Condensed to atoms (all electrons):
               1          2          3          4          5          6
     1  C    4.746301   0.203187   0.216524   0.211805   0.084828  -0.030354
     2  F    0.203187   9.099780  -0.030654  -0.033113   0.010581   0.000194
     3  F    0.216524  -0.030654   9.059094  -0.031964   0.008862  -0.000340
     4  F    0.211805  -0.033113  -0.031964   9.103524   0.007030  -0.000046
     5  S    0.084828   0.010581   0.008862   0.007030  13.624899   0.436673
     6  O   -0.030354   0.000194  -0.000340  -0.000046   0.436673   8.177398
     7  O   -0.038501  -0.000314   0.000222   0.000048   0.497646  -0.044453
     8  O   -0.021975  -0.000369  -0.000334   0.000181   0.157451  -0.052471
     9  H    0.000959   0.000000  -0.000191  -0.000004   0.002131   0.002205
               7          8          9
     1  C   -0.038501  -0.021975   0.000959
     2  F   -0.000314  -0.000369   0.000000
     3  F    0.000222  -0.000334  -0.000191
     4  F    0.000048   0.000181  -0.000004
     5  S    0.497646   0.157451   0.002131
     6  O   -0.044453  -0.052471   0.002205
     7  O    8.015515  -0.051496   0.001209
     8  O   -0.051496   8.388035   0.204116
     9  H    0.001209   0.204116   0.366912
 Mulliken charges:
               1
     1  C    0.627228
     2  F   -0.249292
     3  F   -0.221219
     4  F   -0.257461
     5  S    1.169900
     6  O   -0.488807
     7  O   -0.379876
     8  O   -0.623137
     9  H    0.422664
 Sum of Mulliken charges =  -0.00000
 Mulliken charges with hydrogens summed into heavy atoms:
               1
     1  C    0.627228
     2  F   -0.249292
     3  F   -0.221219
     4  F   -0.257461
     5  S    1.169900
     6  O   -0.488807
     7  O   -0.379876
     8  O   -0.200473
 Electronic spatial extent (au):  <R**2>=            910.0921
 Charge=             -0.0000 electrons
 Dipole moment (field-independent basis, Debye):
    X=              0.1613    Y=              2.2596    Z=              0.2921  Tot=              2.2841
 Quadrupole moment (field-independent basis, Debye-Ang):
   XX=            -47.9943   YY=            -46.5467   ZZ=            -53.9743
   XY=              5.2920   XZ=             -0.0825   YZ=              0.3421
 Traceless Quadrupole moment (field-independent basis, Debye-Ang):
   XX=              1.5108   YY=              2.9584   ZZ=             -4.4692
   XY=              5.2920   XZ=             -0.0825   YZ=              0.3421
 Octapole moment (field-independent basis, Debye-Ang**2):
  XXX=             -9.1765  YYY=             13.1575  ZZZ=             -3.0046  XYY=              2.9684
  XXY=             13.6018  XXZ=             -0.3486  XZZ=            -11.9437  YZZ=             -0.6033
  YYZ=              3.4231  XYZ=              0.3717
 Hexadecapole moment (field-independent basis, Debye-Ang**3):
 XXXX=           -480.7852 YYYY=           -196.6232 ZZZZ=           -214.2592 XXXY=             25.5357
 XXXZ=             -0.7489 YYYX=             26.6933 YYYZ=              1.0348 ZZZX=             -4.6048
 ZZZY=              1.9478 XXYY=            -99.5452 XXZZ=           -129.2136 YYZZ=            -73.3900
 XXYZ=              1.7916 YYXZ=              4.5224 ZZXY=             -1.4260
 N-N= 5.519254954523D+02 E-N=-3.382581019228D+03  KE= 9.558237785023D+02
 Orbital energies and kinetic energies (alpha):
                                 1                 2
   1         O               -89.172832        120.981372
   2         O               -24.781882         37.083397
   3         O               -24.762694         37.084080
   4         O               -24.761029         37.084165
   5         O               -19.240488         29.032538
   6         O               -19.208241         29.024898
   7         O               -19.194760         29.028518
   8         O               -10.500755         15.902249
   9         O                -8.199402         18.522854
  10         O                -6.164414         17.520816
  11         O                -6.162997         17.508585
  12         O                -6.162655         17.515485
  13         O                -1.326322          3.310139
  14         O                -1.250344          3.814373
  15         O                -1.231496          3.855406
  16         O                -1.195945          2.785515
  17         O                -1.071686          2.926233
  18         O                -1.027450          2.825724
  19         O                -0.793712          2.547370
  20         O                -0.681846          2.919518
  21         O                -0.616107          2.712648
  22         O                -0.609185          2.651820
  23         O                -0.596330          2.557558
  24         O                -0.549896          2.532953
  25         O                -0.510741          2.666494
  26         O                -0.495053          2.878810
  27         O                -0.488279          3.168674
  28         O                -0.483484          3.033598
  29         O                -0.463224          2.173424
  30         O                -0.455940          3.321814
  31         O                -0.447673          3.367910
  32         O                -0.431612          3.513696
  33         O                -0.403156          2.265116
  34         O                -0.385367          2.494284
  35         O                -0.370566          2.388262
  36         O                -0.357912          2.428694
  37         O                -0.343215          2.482899
  38         V                -0.061406          1.964634
  39         V                -0.027631          2.872765
  40         V                 0.006365          3.572363
  41         V                 0.019552          2.764143
  42         V                 0.090941          3.549967
  43         V                 0.119202          3.124953
  44         V                 0.142127          3.882724
  45         V                 0.191289          3.062130
  46         V                 0.284540          2.139543
  47         V                 0.311526          1.934933
  48         V                 0.339308          2.194547
  49         V                 0.397615          2.767402
  50         V                 0.458717          2.509740
  51         V                 0.494931          2.527403
  52         V                 0.517436          2.404516
  53         V                 0.645051          2.186481
  54         V                 0.668954          2.741195
  55         V                 0.690089          2.538169
  56         V                 0.752933          2.590939
  57         V                 0.767603          2.568716
  58         V                 0.798757          2.778462
  59         V                 0.859718          3.110767
  60         V                 0.874711          2.637767
  61         V                 0.928492          3.052053
  62         V                 0.967385          3.289034
  63         V                 0.979235          3.295344
  64         V                 0.999377          3.630491
  65         V                 1.012826          3.675938
  66         V                 1.031783          3.376664
  67         V                 1.081628          3.553863
  68         V                 1.098472          3.696410
  69         V                 1.100930          3.836882
  70         V                 1.126928          3.684193
  71         V                 1.168879          3.523592
  72         V                 1.185328          3.541531
  73         V                 1.210584          4.605672
  74         V                 1.271837          3.253013
  75         V                 1.289876          4.400687
  76         V                 1.323730          3.783441
  77         V                 1.345898          2.903345
  78         V                 1.350128          2.912076
  79         V                 1.360066          3.467245
  80         V                 1.379484          3.723729
  81         V                 1.521953          3.123234
  82         V                 1.550382          2.951512
  83         V                 1.579913          3.453233
  84         V                 1.600172          3.403200
  85         V                 1.685419          3.144127
  86         V                 1.713725          2.902792
  87         V                 1.735907          2.998260
  88         V                 1.750400          3.017491
  89         V                 1.769600          3.023649
  90         V                 1.783246          3.018677
  91         V                 1.789111          2.961351
  92         V                 1.797349          2.978695
  93         V                 1.814940          3.164877
  94         V                 1.823942          2.924772
  95         V                 1.832618          3.179798
  96         V                 1.863902          3.209167
  97         V                 1.906818          3.251799
  98         V                 1.924548          3.422032
  99         V                 1.947330          3.666155
 100         V                 1.977007          3.519031
 101         V                 1.993588          3.589226
 102         V                 2.013098          3.704831
 103         V                 2.054423          3.741574
 104         V                 2.094864          3.587464
 105         V                 2.121887          3.683916
 106         V                 2.142210          3.644742
 107         V                 2.178064          3.682958
 108         V                 2.184046          3.894297
 109         V                 2.290172          3.908912
 110         V                 2.394357          4.641708
 111         V                 2.591869          4.056197
 112         V                 2.622814          4.054167
 113         V                 2.639202          4.331021
 114         V                 2.730476          4.833861
 115         V                 2.814969          5.139564
 116         V                 2.860826          6.202538
 117         V                 3.004787          5.772006
 118         V                 3.023276          5.728756
 119         V                 3.551286          9.985108
 120         V                 3.841639         10.736035
 121         V                 3.862080         11.572188
 122         V                 3.938538         11.728599
 123         V                 4.254926         11.626528
 124         V                 4.300378         10.301646
 125         V                 4.343479         11.714176
 126         V                 5.070317         13.950177
 Total kinetic energy from orbitals= 9.558237785023D+02
 Unable to Open any file for archive entry.
 1\1\GINC-SPARTAN-BM162\SP\RB3LYP\6-31G(d)\C1H1F3O3S1\AKHALILOV\20-Mar-
 2025\0\\# B3LYP/6-31G(d) pop=full density=current\\PFMS Time step 25\\
 0,1\C,0,-0.914755,0.016959,-0.227629\F,0,-1.060241,0.167012,-1.615605\
 F,0,-1.576046,1.049522,0.355266\F,0,-1.669426,-1.14199,0.062576\S,0,0.
 853967,-0.169576,0.267842\O,0,1.01104,-0.175748,1.724442\O,0,1.541495,
 -1.059284,-0.539629\O,0,1.42776,1.350612,-0.17878\H,0,1.797076,1.93809
 3,0.825824\\Version=ES64L-G16RevC.01\State=1-A\HF=-961.9406927\RMSD=9.
 990e-09\Dipole=-0.0491575,0.8505448,0.2857965\Quadrupole=0.1887794,2.1
 772933,-2.3660726,3.3160636,1.5811404,2.3312749\PG=C01 [X(C1H1F3O3S1)]
 \\@
 The archive entry for this job was punched.


 Experience is what you get when you don't get what you want.
 -- Dan Stanford
 Job cpu time:       0 days  0 hours  0 minutes  9.8 seconds.
 Elapsed time:       0 days  0 hours  0 minutes  2.9 seconds.
 File lengths (MBytes):  RWF=     10 Int=      0 D2E=      0 Chk=      2 Scr=      1
 Normal termination of Gaussian 16 at Thu Mar 20 00:09:58 2025.
