PFMS Time step 15                                                       
SP        RB3LYP                                                      6-31G(d)            
Number of atoms                            I                9
Info1-9                                    I   N=           9
          18          18           0           0           0         110
           1          18        -502
Full Title                                 C   N=           2
PFMS Time step 15       
Route                                      C   N=           4
# B3LYP/6-31G(d) pop=full density=current       
Charge                                     I                0
Multiplicity                               I                1
Number of electrons                        I               74
Number of alpha electrons                  I               37
Number of beta electrons                   I               37
Number of basis functions                  I              126
Number of independent functions            I              126
Number of point charges in /Mol/           I                0
Number of translation vectors              I                0
Atomic numbers                             I   N=           9
           6           9           9           9          16           8
           8           8           1
Nuclear charges                            R   N=           9
  6.00000000E+00  9.00000000E+00  9.00000000E+00  9.00000000E+00  1.60000000E+01
  8.00000000E+00  8.00000000E+00  8.00000000E+00  1.00000000E+00
Current cartesian coordinates              R   N=          27
 -1.87118207E+00  5.93344424E-02  2.65948370E-02 -2.83379809E+00 -2.73174255E-01
 -2.39417690E+00 -2.68212111E+00  2.36223623E+00  8.38435855E-01 -3.13279144E+00
 -1.72628447E+00  1.50126240E+00  1.59501902E+00 -3.50885884E-01  1.42607836E-01
  2.61070644E+00  2.99469288E-01  2.62504021E+00  2.39657484E+00 -2.53848255E+00
 -1.14139589E+00  2.47721070E+00  2.05734826E+00 -1.67071053E+00  3.66924806E+00
  3.44649001E+00 -4.54456832E-01
Number of symbols in /Mol/                 I                0
Int Atom Types                             I   N=           9
           0           0           0           0           0           0
           0           0           0
Force Field                                I                0
Atom Types                                 C   N=           9
                                                            
                                                
MM charges                                 R   N=           9
  0.00000000E+00  0.00000000E+00  0.00000000E+00  0.00000000E+00  0.00000000E+00
  0.00000000E+00  0.00000000E+00  0.00000000E+00  0.00000000E+00
Integer atomic weights                     I   N=           9
          12          19          19          19          32          16
          16          16           1
Real atomic weights                        R   N=           9
  1.20000000E+01  1.89984032E+01  1.89984032E+01  1.89984032E+01  3.19720718E+01
  1.59949146E+01  1.59949146E+01  1.59949146E+01  1.00782504E+00
Atom fragment info                         I   N=           9
           0           0           0           0           0           0
           0           0           0
Atom residue num                           I   N=           9
           0           0           0           0           0           0
           0           0           0
Nuclear spins                              I   N=           9
           0           1           1           1           0           0
           0           0           1
Nuclear ZEff                               R   N=           9
 -3.60000000E+00 -6.75000000E+00 -6.75000000E+00 -6.75000000E+00 -1.36000000E+01
 -5.60000000E+00 -5.60000000E+00 -5.60000000E+00 -1.00000000E+00
Nuclear ZNuc                               R   N=           9
  6.00000000E+00  9.00000000E+00  9.00000000E+00  9.00000000E+00  1.60000000E+01
  8.00000000E+00  8.00000000E+00  8.00000000E+00  1.00000000E+00
Nuclear QMom                               R   N=           9
  0.00000000E+00  0.00000000E+00  0.00000000E+00  0.00000000E+00  0.00000000E+00
  0.00000000E+00  0.00000000E+00  0.00000000E+00  0.00000000E+00
Nuclear GFac                               R   N=           9
  0.00000000E+00  2.62886700E+00  2.62886700E+00  2.62886700E+00  0.00000000E+00
  0.00000000E+00  0.00000000E+00  0.00000000E+00  2.79284600E+00
MicOpt                                     I   N=           9
          -1          -1          -1          -1          -1          -1
          -1          -1          -1
Number of residues                         I                0
Number of secondary structures             I                0
SymInf integers                            I   N=          26
           1           1           1           1           1           0
           0           0           0           0           0           0
           0           0           0           0           0           0
           0           0           0           0           0           0
           0           0
RotTr to input orientation                 R   N=          12
  9.61469268E-01  3.13917312E-02  2.73114274E-01 -1.03799788E-01  9.61375947E-01
  2.54915460E-01 -2.54563257E-01 -2.73442585E-01  9.27591883E-01  7.77924656E-02
  2.28359102E-02  2.52521804E-02
Number of contracted shells                I               35
Number of primitive shells                 I               98
Pure/Cartesian d shells                    I                1
Pure/Cartesian f shells                    I                0
Highest angular momentum                   I                2
Largest degree of contraction              I                6
Shell types                                I   N=          35
           0          -1          -1           2           0          -1
          -1           2           0          -1          -1           2
           0          -1          -1           2           0          -1
          -1          -1           2           0          -1          -1
           2           0          -1          -1           2           0
          -1          -1           2           0           0
Number of primitives per shell             I   N=          35
           6           3           1           1           6           3
           1           1           6           3           1           1
           6           3           1           1           6           6
           3           1           1           6           3           1
           1           6           3           1           1           6
           3           1           1           3           1
Shell to atom map                          I   N=          35
           1           1           1           1           2           2
           2           2           3           3           3           3
           4           4           4           4           5           5
           5           5           5           6           6           6
           6           7           7           7           7           8
           8           8           8           9           9
Primitive exponents                        R   N=          98
  3.04752488E+03  4.57369518E+02  1.03948685E+02  2.92101553E+01  9.28666296E+00
  3.16392696E+00  7.86827235E+00  1.88128854E+00  5.44249258E-01  1.68714478E-01
  8.00000000E-01  7.00171309E+03  1.05136609E+03  2.39285690E+02  6.73974453E+01
  2.15199573E+01  7.40310130E+00  2.08479528E+01  4.80830834E+00  1.34406986E+00
  3.58151393E-01  8.00000000E-01  7.00171309E+03  1.05136609E+03  2.39285690E+02
  6.73974453E+01  2.15199573E+01  7.40310130E+00  2.08479528E+01  4.80830834E+00
  1.34406986E+00  3.58151393E-01  8.00000000E-01  7.00171309E+03  1.05136609E+03
  2.39285690E+02  6.73974453E+01  2.15199573E+01  7.40310130E+00  2.08479528E+01
  4.80830834E+00  1.34406986E+00  3.58151393E-01  8.00000000E-01  2.19171000E+04
  3.30149000E+03  7.54146000E+02  2.12711000E+02  6.79896000E+01  2.30515000E+01
  4.23735000E+02  1.00710000E+02  3.21599000E+01  1.18079000E+01  4.63110000E+00
  1.87025000E+00  2.61584000E+00  9.22167000E-01  3.41287000E-01  1.17167000E-01
  6.50000000E-01  5.48467166E+03  8.25234946E+02  1.88046958E+02  5.29645000E+01
  1.68975704E+01  5.79963534E+00  1.55396162E+01  3.59993359E+00  1.01376175E+00
  2.70005823E-01  8.00000000E-01  5.48467166E+03  8.25234946E+02  1.88046958E+02
  5.29645000E+01  1.68975704E+01  5.79963534E+00  1.55396162E+01  3.59993359E+00
  1.01376175E+00  2.70005823E-01  8.00000000E-01  5.48467166E+03  8.25234946E+02
  1.88046958E+02  5.29645000E+01  1.68975704E+01  5.79963534E+00  1.55396162E+01
  3.59993359E+00  1.01376175E+00  2.70005823E-01  8.00000000E-01  1.87311370E+01
  2.82539436E+00  6.40121692E-01  1.61277759E-01
Contraction coefficients                   R   N=          98
  1.83473713E-03  1.40373228E-02  6.88426223E-02  2.32184443E-01  4.67941348E-01
  3.62311985E-01 -1.19332420E-01 -1.60854152E-01  1.14345644E+00  1.00000000E+00
  1.00000000E+00  1.81961690E-03  1.39160796E-02  6.84053245E-02  2.33185760E-01
  4.71267439E-01  3.56618546E-01 -1.08506975E-01 -1.46451658E-01  1.12868858E+00
  1.00000000E+00  1.00000000E+00  1.81961690E-03  1.39160796E-02  6.84053245E-02
  2.33185760E-01  4.71267439E-01  3.56618546E-01 -1.08506975E-01 -1.46451658E-01
  1.12868858E+00  1.00000000E+00  1.00000000E+00  1.81961690E-03  1.39160796E-02
  6.84053245E-02  2.33185760E-01  4.71267439E-01  3.56618546E-01 -1.08506975E-01
 -1.46451658E-01  1.12868858E+00  1.00000000E+00  1.00000000E+00  1.86924085E-03
  1.42303065E-02  6.96962317E-02  2.38487108E-01  4.83307220E-01  3.38074154E-01
 -2.37677050E-03 -3.16930067E-02 -1.13317024E-01  5.60900118E-02  5.92255124E-01
  4.55006095E-01 -2.50373114E-01  6.69567631E-02  1.05450627E+00  1.00000000E+00
  1.00000000E+00  1.83107443E-03  1.39501722E-02  6.84450781E-02  2.32714336E-01
  4.70192898E-01  3.58520853E-01 -1.10777550E-01 -1.48026263E-01  1.13076702E+00
  1.00000000E+00  1.00000000E+00  1.83107443E-03  1.39501722E-02  6.84450781E-02
  2.32714336E-01  4.70192898E-01  3.58520853E-01 -1.10777550E-01 -1.48026263E-01
  1.13076702E+00  1.00000000E+00  1.00000000E+00  1.83107443E-03  1.39501722E-02
  6.84450781E-02  2.32714336E-01  4.70192898E-01  3.58520853E-01 -1.10777550E-01
 -1.48026263E-01  1.13076702E+00  1.00000000E+00  1.00000000E+00  3.34946043E-02
  2.34726953E-01  8.13757326E-01  1.00000000E+00
P(S=P) Contraction coefficients            R   N=          98
  0.00000000E+00  0.00000000E+00  0.00000000E+00  0.00000000E+00  0.00000000E+00
  0.00000000E+00  6.89990666E-02  3.16423961E-01  7.44308291E-01  1.00000000E+00
  0.00000000E+00  0.00000000E+00  0.00000000E+00  0.00000000E+00  0.00000000E+00
  0.00000000E+00  0.00000000E+00  7.16287242E-02  3.45912103E-01  7.22469956E-01
  1.00000000E+00  0.00000000E+00  0.00000000E+00  0.00000000E+00  0.00000000E+00
  0.00000000E+00  0.00000000E+00  0.00000000E+00  7.16287242E-02  3.45912103E-01
  7.22469956E-01  1.00000000E+00  0.00000000E+00  0.00000000E+00  0.00000000E+00
  0.00000000E+00  0.00000000E+00  0.00000000E+00  0.00000000E+00  7.16287242E-02
  3.45912103E-01  7.22469956E-01  1.00000000E+00  0.00000000E+00  0.00000000E+00
  0.00000000E+00  0.00000000E+00  0.00000000E+00  0.00000000E+00  0.00000000E+00
  4.06100998E-03  3.06812999E-02  1.30451999E-01  3.27204999E-01  4.52850998E-01
  2.56041999E-01 -1.45104895E-02  3.10262776E-01  7.54482456E-01  1.00000000E+00
  0.00000000E+00  0.00000000E+00  0.00000000E+00  0.00000000E+00  0.00000000E+00
  0.00000000E+00  0.00000000E+00  7.08742682E-02  3.39752839E-01  7.27158577E-01
  1.00000000E+00  0.00000000E+00  0.00000000E+00  0.00000000E+00  0.00000000E+00
  0.00000000E+00  0.00000000E+00  0.00000000E+00  7.08742682E-02  3.39752839E-01
  7.27158577E-01  1.00000000E+00  0.00000000E+00  0.00000000E+00  0.00000000E+00
  0.00000000E+00  0.00000000E+00  0.00000000E+00  0.00000000E+00  7.08742682E-02
  3.39752839E-01  7.27158577E-01  1.00000000E+00  0.00000000E+00  0.00000000E+00
  0.00000000E+00  0.00000000E+00  0.00000000E+00
Coordinates of each shell                  R   N=         105
 -1.87118207E+00  5.93344424E-02  2.65948370E-02 -1.87118207E+00  5.93344424E-02
  2.65948370E-02 -1.87118207E+00  5.93344424E-02  2.65948370E-02 -1.87118207E+00
  5.93344424E-02  2.65948370E-02 -2.83379809E+00 -2.73174255E-01 -2.39417690E+00
 -2.83379809E+00 -2.73174255E-01 -2.39417690E+00 -2.83379809E+00 -2.73174255E-01
 -2.39417690E+00 -2.83379809E+00 -2.73174255E-01 -2.39417690E+00 -2.68212111E+00
  2.36223623E+00  8.38435855E-01 -2.68212111E+00  2.36223623E+00  8.38435855E-01
 -2.68212111E+00  2.36223623E+00  8.38435855E-01 -2.68212111E+00  2.36223623E+00
  8.38435855E-01 -3.13279144E+00 -1.72628447E+00  1.50126240E+00 -3.13279144E+00
 -1.72628447E+00  1.50126240E+00 -3.13279144E+00 -1.72628447E+00  1.50126240E+00
 -3.13279144E+00 -1.72628447E+00  1.50126240E+00  1.59501902E+00 -3.50885884E-01
  1.42607836E-01  1.59501902E+00 -3.50885884E-01  1.42607836E-01  1.59501902E+00
 -3.50885884E-01  1.42607836E-01  1.59501902E+00 -3.50885884E-01  1.42607836E-01
  1.59501902E+00 -3.50885884E-01  1.42607836E-01  2.61070644E+00  2.99469288E-01
  2.62504021E+00  2.61070644E+00  2.99469288E-01  2.62504021E+00  2.61070644E+00
  2.99469288E-01  2.62504021E+00  2.61070644E+00  2.99469288E-01  2.62504021E+00
  2.39657484E+00 -2.53848255E+00 -1.14139589E+00  2.39657484E+00 -2.53848255E+00
 -1.14139589E+00  2.39657484E+00 -2.53848255E+00 -1.14139589E+00  2.39657484E+00
 -2.53848255E+00 -1.14139589E+00  2.47721070E+00  2.05734826E+00 -1.67071053E+00
  2.47721070E+00  2.05734826E+00 -1.67071053E+00  2.47721070E+00  2.05734826E+00
 -1.67071053E+00  2.47721070E+00  2.05734826E+00 -1.67071053E+00  3.66924806E+00
  3.44649001E+00 -4.54456832E-01  3.66924806E+00  3.44649001E+00 -4.54456832E-01
Num ILSW                                   I              100
ILSW                                       I   N=         100
           0           1           0           0           2           0
           0           0           0           0         402          -1
           5           0           0           0           0           0
           0           0           1           0           0           0
           1           0           0           0           0           0
           0           0      100000           0          -1           0
           0           0           0           0           0           0
           0           0           0           1           0           0
           0 -2000000000           1           0           0           0
           0           0           4          52           0           0
           0           0           5           0           0           0
           0           0           0           0           0           1
           0           0           0           0           0           0
           0           0           0           0           0           0
           0           0           0           0           0           0
           0           0           0           0           0           0
           0           0           0           0
Num RLSW                                   I               52
RLSW                                       R   N=          52
  8.00000000E-01  7.20000000E-01  1.00000000E+00  8.10000000E-01  2.00000000E-01
  0.00000000E+00  0.00000000E+00  1.00000000E+00  0.00000000E+00  0.00000000E+00
  0.00000000E+00  0.00000000E+00  1.00000000E+00  0.00000000E+00  0.00000000E+00
  0.00000000E+00  0.00000000E+00  1.00000000E+00  0.00000000E+00  0.00000000E+00
  0.00000000E+00  0.00000000E+00  1.00000000E+00  0.00000000E+00  0.00000000E+00
  0.00000000E+00  0.00000000E+00  1.00000000E+00  0.00000000E+00  0.00000000E+00
  0.00000000E+00  0.00000000E+00  1.00000000E+00  0.00000000E+00  0.00000000E+00
  0.00000000E+00  0.00000000E+00  0.00000000E+00  1.00000000E+00  1.00000000E+00
  0.00000000E+00  1.00000000E+00  0.00000000E+00  0.00000000E+00  0.00000000E+00
  0.00000000E+00  0.00000000E+00  0.00000000E+00  0.00000000E+00  0.00000000E+00
  0.00000000E+00  0.00000000E+00
MxBond                                     I                4
NBond                                      I   N=           9
           4           1           1           1           4           1
           1           1           0
IBond                                      I   N=          36
           2           3           4           5           1           0
           0           0           1           0           0           0
           1           0           0           0           1           6
           7           8           5           0           0           0
           5           0           0           0           5           0
           0           0           0           0           0           0
RBond                                      R   N=          36
  1.00000000E+00  1.00000000E+00  1.00000000E+00  1.00000000E+00  1.00000000E+00
  0.00000000E+00  0.00000000E+00  0.00000000E+00  1.00000000E+00  0.00000000E+00
  0.00000000E+00  0.00000000E+00  1.00000000E+00  0.00000000E+00  0.00000000E+00
  0.00000000E+00  1.00000000E+00  2.00000000E+00  2.00000000E+00  1.00000000E+00
  2.00000000E+00  0.00000000E+00  0.00000000E+00  0.00000000E+00  2.00000000E+00
  0.00000000E+00  0.00000000E+00  0.00000000E+00  1.00000000E+00  0.00000000E+00
  0.00000000E+00  0.00000000E+00  0.00000000E+00  0.00000000E+00  0.00000000E+00
  0.00000000E+00
Virial Ratio                               R      2.006379048811461E+00
SCF Energy                                 R     -9.619597816865012E+02
Total Energy                               R     -9.619597816865012E+02
RMS Density                                R      7.843504186052186E-09
Job Status                                 I                1
Nuclear derivative order                   I                0
External E-field                           R   N=          35
  0.00000000E+00  0.00000000E+00  0.00000000E+00  0.00000000E+00  0.00000000E+00
  0.00000000E+00  0.00000000E+00  0.00000000E+00  0.00000000E+00  0.00000000E+00
  0.00000000E+00  0.00000000E+00  0.00000000E+00  0.00000000E+00  0.00000000E+00
  0.00000000E+00  0.00000000E+00  0.00000000E+00  0.00000000E+00  0.00000000E+00
  0.00000000E+00  0.00000000E+00  0.00000000E+00  0.00000000E+00  0.00000000E+00
  0.00000000E+00  0.00000000E+00  0.00000000E+00  0.00000000E+00  0.00000000E+00
  0.00000000E+00  0.00000000E+00  0.00000000E+00  0.00000000E+00  0.00000000E+00
IOpCl                                      I                0
IROHF                                      I                0
Alpha Orbital Energies                     R   N=         126
 -8.91732914E+01 -2.47781764E+01 -2.47657662E+01 -2.47656217E+01 -1.92424004E+01
 -1.92040138E+01 -1.91941986E+01 -1.05002668E+01 -8.19915047E+00 -6.16438461E+00
 -6.16259355E+00 -6.16249170E+00 -1.32988264E+00 -1.25205014E+00 -1.23951105E+00
 -1.18923938E+00 -1.06843128E+00 -1.03918660E+00 -7.93783646E-01 -6.85178316E-01
 -6.19186303E-01 -6.13653379E-01 -6.02049342E-01 -5.51405898E-01 -5.11017056E-01
 -4.93787291E-01 -4.90481946E-01 -4.87209931E-01 -4.66415996E-01 -4.57295408E-01
 -4.51555365E-01 -4.34679492E-01 -4.02079728E-01 -3.81431457E-01 -3.70617623E-01
 -3.59651927E-01 -3.42778752E-01 -4.78547398E-02 -2.18195180E-02  1.33690729E-02
  2.45078854E-02  9.30046881E-02  1.25611226E-01  1.47967380E-01  1.89518391E-01
  2.84496357E-01  3.12583805E-01  3.40868000E-01  3.93213333E-01  4.58989265E-01
  4.91616151E-01  5.15467373E-01  6.45152084E-01  6.72754560E-01  6.93740171E-01
  7.54348264E-01  7.76638168E-01  7.98895532E-01  8.61871853E-01  8.76774219E-01
  9.29555915E-01  9.67824851E-01  9.83821356E-01  9.99567931E-01  1.01285878E+00
  1.02514045E+00  1.08102859E+00  1.10092856E+00  1.10361454E+00  1.12236134E+00
  1.16723224E+00  1.18380724E+00  1.19127391E+00  1.27296206E+00  1.29030501E+00
  1.32254622E+00  1.34440568E+00  1.34706848E+00  1.36137335E+00  1.37803687E+00
  1.51914553E+00  1.55045958E+00  1.58448085E+00  1.60015582E+00  1.68025822E+00
  1.71516017E+00  1.73852673E+00  1.75129953E+00  1.76944732E+00  1.77894112E+00
  1.79039272E+00  1.79730994E+00  1.81711637E+00  1.82103374E+00  1.83133931E+00
  1.86668436E+00  1.91062203E+00  1.92813597E+00  1.94977748E+00  1.99264906E+00
  2.00504935E+00  2.01954502E+00  2.07140176E+00  2.10745113E+00  2.13945794E+00
  2.14776822E+00  2.18470613E+00  2.19228807E+00  2.28578399E+00  2.41930579E+00
  2.61347461E+00  2.63381945E+00  2.63786615E+00  2.73387399E+00  2.80711877E+00
  2.87648158E+00  3.00580238E+00  3.01820199E+00  3.55924377E+00  3.83349296E+00
  3.86489596E+00  3.93620705E+00  4.27362018E+00  4.30553811E+00  4.36320797E+00
  5.07124245E+00
Alpha MO coefficients                      R   N=       15876
 -2.54193268E-05 -6.79839111E-05  5.01910121E-05 -2.18269040E-06  3.39907803E-06
  8.31511963E-04  3.85956962E-04 -8.35288012E-05 -1.06712027E-05 -4.60536458E-05
 -4.89817297E-06 -4.04143417E-06  1.31947036E-05 -1.66613976E-06  4.30194412E-07
  1.83701771E-05  1.11302891E-04  1.13000763E-05 -4.29873316E-06 -3.92046758E-06
 -4.14865087E-04 -1.34491572E-04  1.53752778E-05 -6.14049969E-05  6.12060170E-05
  5.25560680E-05  6.98131522E-05 -4.35451307E-06 -2.91751078E-05  9.81864641E-06
  1.57460142E-05  9.49988319E-05  1.36274325E-05  4.21161580E-06  2.38819623E-06
 -3.47116434E-04 -1.33278286E-04  5.09808854E-05  9.87840715E-06  5.17989598E-05
  5.99556914E-05  4.58199242E-05  2.91457226E-05  1.14061014E-05  9.44188252E-06
  2.04428482E-05  1.22189381E-04  1.34806476E-05 -6.45369008E-06  2.40270909E-06
 -4.45034866E-04 -1.51271554E-04 -2.14822634E-05  3.67326174E-05  6.13962361E-05
  7.96143837E-05  6.75860156E-05 -2.04712736E-05  1.81370065E-05 -1.35716474E-05
  9.96122804E-01  1.48657696E-02 -1.30053634E-05  2.05402564E-05 -1.57085793E-05
 -2.41357853E-02  8.70827945E-05 -6.13850800E-05  3.21147663E-05  1.50603689E-03
 -1.99722008E-05 -4.49498111E-05  6.94864486E-05  8.49543487E-03  8.58888016E-03
  8.61533193E-03 -1.18412301E-05  7.83590217E-06  4.59997944E-05  1.46800977E-05
 -4.82082524E-08  3.45470900E-05  3.11178363E-05  1.14139412E-04  4.12493913E-04
 -6.63230194E-05 -6.91621757E-05 -2.84548218E-04  9.21838233E-06  4.21122099E-05
 -1.61450862E-04 -2.73844445E-05 -1.13951910E-04 -6.41241224E-05  1.33671588E-05
 -3.43535493E-05  3.90378642E-05 -1.39385777E-04 -8.13144561E-05  4.73973601E-04
 -5.12425857E-05  2.74125263E-04  1.48633741E-04  2.45085610E-05 -1.21908632E-04
 -1.43473575E-06  8.65590221E-05  4.89806807E-05 -1.22715721E-04 -1.41079841E-05
 -2.22805440E-05 -2.35987271E-05 -1.68073316E-05 -7.75686051E-06  5.90941810E-04
 -2.06884828E-06 -1.92731809E-04  2.33867685E-04 -5.33717047E-05 -1.05454145E-04
 -7.62057794E-05 -1.95088204E-05  4.22689190E-05  8.25629414E-05 -6.95284052E-05
 -9.10769003E-05 -3.24285622E-05  3.02519149E-05 -3.00891467E-04  5.68569032E-04
  1.90287742E-04  3.93282807E-04  5.13305928E-04 -9.93121198E-05  5.21050891E-05
  6.43017729E-05  4.29961727E-04  7.35426964E-05 -1.86399728E-04 -7.28924898E-05
  1.60637683E-04  6.75628356E-05  4.81017217E-05  1.92153682E-06  1.42459959E-05
  1.42101039E-05  6.91419669E-06 -2.23183880E-05 -1.06744329E-04 -9.48222131E-05
  3.03785881E-05 -5.63341224E-05 -5.89941788E-05  8.45397864E-06 -2.28878700E-05
 -9.31708870E-05  9.93012264E-01  1.97309878E-02  2.59837839E-04 -6.80799680E-04
 -2.37531225E-04  1.47113703E-02 -1.50957629E-04  4.94128059E-04  1.65822635E-04
 -7.96781836E-03 -8.34113172E-03 -8.00280146E-03  1.71856657E-04  6.28379913E-05
 -1.52759139E-04  6.85795400E-05  8.47559604E-05  6.12660677E-06  2.13728767E-05
 -6.47546396E-07 -1.26271985E-04 -5.01002389E-05 -1.61782200E-04  7.48455215E-07
  4.64223036E-05 -1.13721437E-04  5.43594296E-05 -2.33708301E-05  2.38630410E-05
  1.20023592E-05  3.35061451E-06  5.54236041E-05  5.88099162E-06  8.70376189E-07
  1.21818147E-06  2.37285127E-04 -8.90290255E-05  1.51866140E-05 -3.28337527E-05
 -1.51336425E-03  4.74240406E-04 -8.10648590E-04 -2.29936887E-04  2.88807497E-05
  4.12746809E-05  1.77380924E-05 -8.44390152E-06 -6.89851913E-07 -2.23148329E-06
 -4.35723212E-05 -1.94716304E-04  2.40374060E-05 -1.90909783E-05  1.72504742E-05
  1.00374688E-03 -2.08963929E-04  1.09686292E-04 -2.15191363E-04 -1.13132084E-04
 -1.36245785E-04 -1.17000885E-04 -8.55688561E-06  2.51277827E-05 -2.36832950E-05
  1.41299779E-05  5.03708896E-05  9.70374065E-06 -8.14318053E-06  7.91797055E-06
 -2.79280801E-04 -4.20846805E-05  4.74089757E-05 -3.80387692E-05  4.11018234E-05
  5.19591102E-05  4.04448269E-05 -1.60398244E-06  2.88660049E-06 -4.41089289E-06
 -2.81087482E-05 -1.43198420E-04  8.83934341E-06  1.53763817E-05 -1.33129432E-05
  7.29272697E-04 -1.48338283E-04 -1.36799222E-04  1.85095063E-04 -7.18045713E-05
 -8.97244598E-05 -5.04110276E-05  1.09243677E-05 -1.75341888E-05 -4.56747868E-06
 -2.66180573E-05  1.23188937E-04 -3.10729515E-05 -6.07197448E-05 -3.05591277E-04
 -5.62116512E-05 -5.31055468E-04  2.88891415E-04  4.68374146E-04 -9.97666674E-05
  2.39931819E-05  1.14537322E-04  5.62512788E-05  5.15425852E-04  4.25654858E-05
  2.46321814E-04  6.95823117E-05  9.93004880E-01  1.97228221E-02  2.83158288E-04
  9.42562198E-05  6.70381237E-04  1.47037206E-02 -1.56189849E-04 -5.92902815E-05
 -4.73268855E-04 -7.97794223E-03 -7.95631709E-03 -8.34077479E-03 -2.98932717E-05
 -1.97065279E-04 -5.73884017E-05 -7.32002630E-05  3.81257073E-05 -8.17350738E-08
 -1.20088346E-05 -1.86144946E-05  4.32094699E-05 -6.05592663E-06  6.68304368E-05
  1.28358195E-04  2.84498486E-05 -3.24668049E-05 -9.01429067E-05  1.80103740E-05
 -1.79560661E-05 -8.54712052E-05  5.04568356E-03  1.75912257E-04  5.94720559E-06
  6.42475902E-06 -2.43772181E-05 -2.12886484E-05 -3.21889400E-05 -2.20533463E-05
  1.62256191E-04  2.55157195E-06  3.49091608E-06 -1.48106927E-04 -2.47905196E-05
  7.96270471E-06  4.91430369E-05  2.78462042E-06  4.97958586E-05  6.89458348E-06
 -6.99657688E-07 -3.57693792E-06  2.00045419E-04 -9.46845076E-05  3.32344060E-05
  1.66581073E-05 -1.36884637E-03  5.29218149E-04 -3.69566634E-06  7.52963789E-04
  3.15339871E-05  3.05610910E-05  3.74447096E-05 -7.63508177E-06  6.25133917E-06
 -6.74223032E-06  1.57145147E-05  5.79227226E-05  1.12824676E-05 -9.19528238E-06
 -4.50146502E-07 -3.12869475E-04 -4.57089503E-05  4.73911897E-05 -4.18778035E-06
  4.84373667E-05  4.74633431E-05  5.11291980E-05 -2.92768034E-06  2.08861715E-06
 -6.30544459E-06 -3.86418037E-05 -1.77123288E-04  1.66603998E-05 -1.89950741E-05
  1.46721430E-05  9.23293161E-04 -1.80319331E-04  2.18494526E-04 -5.74246282E-05
 -1.00539332E-04 -9.22860084E-05 -1.27032701E-04 -2.19198518E-05 -1.71574864E-06
 -1.85875469E-05 -3.45815843E-05 -1.58812332E-04  9.24505597E-06  2.17660530E-05
  1.10541752E-06  7.97146727E-04 -1.37841833E-04 -2.15225492E-04  2.97401015E-05
 -9.39259629E-05 -7.84973694E-05 -1.13138565E-04  2.41890055E-05 -6.37632035E-06
  8.71834456E-06 -9.36211128E-06  1.05675538E-05 -2.46123292E-05 -5.31919574E-05
 -3.55018785E-04 -3.71119508E-04  3.21828707E-04  1.04504354E-04  4.14174376E-04
  7.14781499E-05 -8.71660542E-05  1.82947309E-04  3.09696620E-04  2.26729806E-04
  2.34399289E-04 -1.95702828E-04 -2.33429518E-04 -5.04137713E-03 -3.90888696E-05
 -4.58215114E-06 -8.83617097E-06  1.61584185E-05 -1.23106934E-04  1.04665488E-05
  6.69339550E-05 -1.26868271E-04  7.63043225E-05  4.90200447E-05 -5.14942502E-05
 -2.62198748E-05  4.88442006E-06  7.08580821E-05 -6.22384007E-05  6.47321423E-05
 -2.32558079E-06 -2.10874561E-05  3.13560572E-06 -5.83593248E-05  5.40484079E-06
  1.43462397E-04 -3.40632142E-05  3.91498696E-05 -1.11594480E-04  2.96527683E-05
 -1.19230384E-05  2.93920256E-05  3.81717934E-05  9.93003997E-01  1.97046229E-02
  3.72133133E-04  4.82001133E-04 -3.93498768E-04  1.47908169E-02 -2.11652212E-04
 -3.15155908E-04  2.55983624E-04 -8.03510053E-03 -8.15520080E-03 -8.09008691E-03
 -1.82583173E-04  1.49040238E-04  1.96992085E-04  1.39902075E-06  2.92180276E-05
  8.23441679E-06 -1.25018083E-06  2.74975298E-08  1.03602985E-04 -1.13849935E-04
  1.93133078E-05  1.48279496E-06 -1.08283520E-03  4.97248947E-04  1.96695000E-04
 -1.71210562E-04  1.70354588E-05  3.32049574E-05  2.29810306E-05 -1.73543148E-06
 -2.99615062E-06 -2.73825560E-05 -2.78759559E-05 -1.19787290E-04  2.90839043E-05
  1.49438883E-05  5.28978554E-06  5.77799250E-04 -1.80343358E-04 -9.54088963E-05
 -9.29540788E-05 -7.48444057E-05 -8.06764935E-05 -8.63880742E-05  1.37301600E-05
  2.05325603E-05  8.40307285E-06 -2.92618018E-05 -1.26107968E-04  2.95323598E-05
 -1.19407617E-06 -1.82337740E-05  6.15053453E-04 -1.79565767E-04  7.41233658E-05
  1.33615023E-04 -8.21467209E-05 -9.14738891E-05 -7.94017816E-05 -1.71819236E-05
 -1.85594109E-05  8.31827504E-06  2.07459745E-07 -2.08990526E-07  1.16813768E-05
 -4.20944279E-06  1.07030459E-06  1.77371055E-05 -6.40917922E-05 -2.13699285E-06
  1.09691375E-05  1.83888914E-06 -2.43870245E-08  3.23577956E-06  6.77440613E-06
 -5.07294096E-06  3.99187483E-06  4.50079391E-06 -1.48195842E-05 -2.33140934E-05
 -1.53022748E-04  2.96144444E-05  4.40624329E-06  1.90999551E-05  1.05949303E-03
  4.63335301E-04 -6.64200762E-04  1.42560062E-06  5.09786160E-05 -2.90383927E-05
 -6.96211132E-06  3.35915149E-05 -1.46628277E-05 -3.02511351E-05 -3.46902177E-05
 -1.81696733E-04 -3.52164807E-05 -1.21579289E-05  1.05827328E-06  5.10124136E-04
  1.18974242E-04  1.06890186E-04 -3.11605508E-05 -9.57165137E-05 -1.63953834E-04
 -1.63322081E-04  9.56896882E-06 -6.92427307E-06  3.16730006E-05 -4.76648690E-05
 -2.74897783E-04 -1.47364559E-05  1.14507753E-05  5.34500483E-06  9.52968869E-04
  9.78248133E-05 -9.52840203E-05 -8.02066631E-05 -1.55505281E-04 -1.85116376E-04
 -1.92856713E-04 -5.90429800E-06 -1.20328522E-05  1.49545323E-05  4.77077826E-05
  2.68870579E-04  3.33221432E-05  4.87935680E-06 -2.00107455E-05 -9.61010958E-04