 Entering Gaussian System, Link 0=g16
 Input=PFMS_1000K_step0000.gjf
 Output=PFMS_1000K_step0000.log
 Initial command:
 /apps/easybuild-2022/easybuild/software/Compiler/NVHPC/22.11-CUDA-11.7.0/Gaussian/g16c01-CUDA-11.7.0/g16/l1.exe "/tmp/Gau-265992.inp" -scrdir="/tmp/"
 Default is to use a total of   4 processors:
                                4 via shared-memory
                                1 via Linda
 Entering Link 1 = /apps/easybuild-2022/easybuild/software/Compiler/NVHPC/22.11-CUDA-11.7.0/Gaussian/g16c01-CUDA-11.7.0/g16/l1.exe PID=    265993.
  
 Copyright (c) 1988-2019, Gaussian, Inc.  All Rights Reserved.
  
 This is part of the Gaussian(R) 16 program.  It is based on
 the Gaussian(R) 09 system (copyright 2009, Gaussian, Inc.),
 the Gaussian(R) 03 system (copyright 2003, Gaussian, Inc.),
 the Gaussian(R) 98 system (copyright 1998, Gaussian, Inc.),
 the Gaussian(R) 94 system (copyright 1995, Gaussian, Inc.),
 the Gaussian 92(TM) system (copyright 1992, Gaussian, Inc.),
 the Gaussian 90(TM) system (copyright 1990, Gaussian, Inc.),
 the Gaussian 88(TM) system (copyright 1988, Gaussian, Inc.),
 the Gaussian 86(TM) system (copyright 1986, Carnegie Mellon
 University), and the Gaussian 82(TM) system (copyright 1983,
 Carnegie Mellon University). Gaussian is a federally registered
 trademark of Gaussian, Inc.
  
 This software contains proprietary and confidential information,
 including trade secrets, belonging to Gaussian, Inc.
  
 This software is provided under written license and may be
 used, copied, transmitted, or stored only in accord with that
 written license.
  
 The following legend is applicable only to US Government
 contracts under FAR:
  
                    RESTRICTED RIGHTS LEGEND
  
 Use, reproduction and disclosure by the US Government is
 subject to restrictions as set forth in subparagraphs (a)
 and (c) of the Commercial Computer Software - Restricted
 Rights clause in FAR 52.227-19.
  
 Gaussian, Inc.
 340 Quinnipiac St., Bldg. 40, Wallingford CT 06492
  
  
 ---------------------------------------------------------------
 Warning -- This program may not be used in any manner that
 competes with the business of Gaussian, Inc. or will provide
 assistance to any competitor of Gaussian, Inc.  The licensee
 of this program is prohibited from giving any competitor of
 Gaussian, Inc. access to this program.  By using this program,
 the user acknowledges that Gaussian, Inc. is engaged in the
 business of creating and licensing software in the field of
 computational chemistry and represents and warrants to the
 licensee that it is not a competitor of Gaussian, Inc. and that
 it will not use this program in any manner prohibited above.
 ---------------------------------------------------------------
  

 Cite this work as:
 Gaussian 16, Revision C.01,
 M. J. Frisch, G. W. Trucks, H. B. Schlegel, G. E. Scuseria, 
 M. A. Robb, J. R. Cheeseman, G. Scalmani, V. Barone, 
 G. A. Petersson, H. Nakatsuji, X. Li, M. Caricato, A. V. Marenich, 
 J. Bloino, B. G. Janesko, R. Gomperts, B. Mennucci, H. P. Hratchian, 
 J. V. Ortiz, A. F. Izmaylov, J. L. Sonnenberg, D. Williams-Young, 
 F. Ding, F. Lipparini, F. Egidi, J. Goings, B. Peng, A. Petrone, 
 T. Henderson, D. Ranasinghe, V. G. Zakrzewski, J. Gao, N. Rega, 
 G. Zheng, W. Liang, M. Hada, M. Ehara, K. Toyota, R. Fukuda, 
 J. Hasegawa, M. Ishida, T. Nakajima, Y. Honda, O. Kitao, H. Nakai, 
 T. Vreven, K. Throssell, J. A. Montgomery, Jr., J. E. Peralta, 
 F. Ogliaro, M. J. Bearpark, J. J. Heyd, E. N. Brothers, K. N. Kudin, 
 V. N. Staroverov, T. A. Keith, R. Kobayashi, J. Normand, 
 K. Raghavachari, A. P. Rendell, J. C. Burant, S. S. Iyengar, 
 J. Tomasi, M. Cossi, J. M. Millam, M. Klene, C. Adamo, R. Cammi, 
 J. W. Ochterski, R. L. Martin, K. Morokuma, O. Farkas, 
 J. B. Foresman, and D. J. Fox, Gaussian, Inc., Wallingford CT, 2019.
 
 ******************************************
 Gaussian 16:  ES64L-G16RevC.01  3-Jul-2019
                20-Mar-2025 
 ******************************************
 %chk=PFMS_1000K_step0000.chk
 %mem=8GB
 %nprocshared=4
 Will use up to    4 processors via shared memory.
 -----------------------------------------
 # B3LYP/6-31G(d) pop=full density=current
 -----------------------------------------
 1/30=1,38=1,172=1/1;
 2/12=2,17=6,18=5,40=1/2;
 3/5=1,6=6,7=1,11=2,25=1,30=1,74=-5/1,2,3;
 4//1;
 5/5=2,38=5/2;
 6/7=3,22=-1,28=1/1;
 99/5=1,9=1/99;
 ----------------
 PFMS Time step 0
 ----------------
 Symbolic Z-matrix:
 Charge =  0 Multiplicity = 1
 C                    -0.92746  -0.00731  -0.25074 
 F                    -1.06661   0.18052  -1.59546 
 F                    -1.5501    1.04465   0.35661 
 F                    -1.64475  -1.12427   0.06763 
 S                     0.85175  -0.14549   0.26589 
 O                     0.98087  -0.16689   1.71239 
 O                     1.57231  -1.09909  -0.54995 
 O                     1.39296   1.33008  -0.15657 
 H                     1.72669   1.78321   0.66533 
 
                          Input orientation:                          
 ---------------------------------------------------------------------
 Center     Atomic      Atomic             Coordinates (Angstroms)
 Number     Number       Type             X           Y           Z
 ---------------------------------------------------------------------
      1          6           0       -0.927461   -0.007308   -0.250741
      2          9           0       -1.066611    0.180515   -1.595459
      3          9           0       -1.550095    1.044653    0.356605
      4          9           0       -1.644754   -1.124269    0.067626
      5         16           0        0.851746   -0.145489    0.265888
      6          8           0        0.980867   -0.166886    1.712394
      7          8           0        1.572308   -1.099093   -0.549951
      8          8           0        1.392964    1.330076   -0.156572
      9          1           0        1.726694    1.783207    0.665326
 ---------------------------------------------------------------------
                    Distance matrix (angstroms):
                    1          2          3          4          5
     1  C    0.000000
     2  F    1.364883   0.000000
     3  F    1.364978   2.188846   0.000000
     4  F    1.365089   2.191475   2.190135   0.000000
     5  S    1.857842   2.692765   2.682072   2.688834   0.000000
     6  O    2.742459   3.905732   3.116370   3.242797   1.452415
     7  O    2.744151   3.113579   3.894469   3.275900   1.447122
     8  O    2.679895   3.072685   3.001069   3.911752   1.627477
     9  H    3.330114   3.934758   3.373146   4.491918   2.155215
                    6          7          8          9
     6  O    0.000000
     7  O    2.517343   0.000000
     8  O    2.429764   2.467341   0.000000
     9  H    2.335695   3.131834   0.996102   0.000000
 Stoichiometry    CHF3O3S
 Framework group  C1[X(CHF3O3S)]
 Deg. of freedom    21
 Full point group                 C1      NOp   1
 Largest Abelian subgroup         C1      NOp   1
 Largest concise Abelian subgroup C1      NOp   1
                         Standard orientation:                         
 ---------------------------------------------------------------------
 Center     Atomic      Atomic             Coordinates (Angstroms)
 Number     Number       Type             X           Y           Z
 ---------------------------------------------------------------------
      1          6           0       -1.003361    0.003976    0.006577
      2          9           0       -1.496094   -0.265840   -1.237337
      3          9           0       -1.418249    1.264647    0.325544
      4          9           0       -1.630276   -0.845652    0.871781
      5         16           0        0.846147   -0.152671    0.086327
      6          8           0        1.359962    0.308355    1.364200
      7          8           0        1.301067   -1.404389   -0.479724
      8          8           0        1.282590    1.015889   -0.958979
      9          1           0        1.834433    1.681656   -0.464567
 ---------------------------------------------------------------------
 Rotational constants (GHZ):           2.6246296           1.4591018           1.4401927
 Standard basis: 6-31G(d) (6D, 7F)
 There are   126 symmetry adapted cartesian basis functions of A   symmetry.
 There are   126 symmetry adapted basis functions of A   symmetry.
   126 basis functions,   252 primitive gaussians,   126 cartesian basis functions
    37 alpha electrons       37 beta electrons
       nuclear repulsion energy       556.2834535087 Hartrees.
 NAtoms=    9 NActive=    9 NUniq=    9 SFac= 1.00D+00 NAtFMM=   60 NAOKFM=F Big=F
 Integral buffers will be    131072 words long.
 Raffenetti 2 integral format.
 Two-electron integral symmetry is turned on.
 One-electron integrals computed using PRISM.
 NBasis=   126 RedAO= T EigKep=  2.59D-03  NBF=   126
 NBsUse=   126 1.00D-06 EigRej= -1.00D+00 NBFU=   126
 ExpMin= 1.17D-01 ExpMax= 2.19D+04 ExpMxC= 3.30D+03 IAcc=3 IRadAn=         5 AccDes= 0.00D+00
 Harris functional with IExCor=  402 and IRadAn=       5 diagonalized for initial guess.
 HarFok:  IExCor=  402 AccDes= 0.00D+00 IRadAn=         5 IDoV= 1 UseB2=F ITyADJ=14
 ICtDFT=  3500011 ScaDFX=  1.000000  1.000000  1.000000  1.000000
 FoFCou: FMM=F IPFlag=           0 FMFlag=      100000 FMFlg1=           0
         NFxFlg=           0 DoJE=T BraDBF=F KetDBF=T FulRan=T
         wScrn=  0.000000 ICntrl=       500 IOpCl=  0 I1Cent=   200000004 NGrid=           0
         NMat0=    1 NMatS0=      1 NMatT0=    0 NMatD0=    1 NMtDS0=    0 NMtDT0=    0
 Petite list used in FoFCou.
 Keep R1 ints in memory in canonical form, NReq=35818892.
 Requested convergence on RMS density matrix=1.00D-08 within 128 cycles.
 Requested convergence on MAX density matrix=1.00D-06.
 Requested convergence on             energy=1.00D-06.
 No special actions if energy rises.
 Integral accuracy reduced to 1.0D-05 until final iterations.
 Initial convergence to 1.0D-05 achieved.  Increase integral accuracy.
 SCF Done:  E(RB3LYP) =  -961.988198167     A.U. after   14 cycles
            NFock= 14  Conv=0.80D-08     -V/T= 2.0062

 **********************************************************************

            Population analysis using the SCF Density.

 **********************************************************************

 Orbital symmetries:
       Occupied  (A) (A) (A) (A) (A) (A) (A) (A) (A) (A) (A) (A)
                 (A) (A) (A) (A) (A) (A) (A) (A) (A) (A) (A) (A)
                 (A) (A) (A) (A) (A) (A) (A) (A) (A) (A) (A) (A)
                 (A)
       Virtual   (A) (A) (A) (A) (A) (A) (A) (A) (A) (A) (A) (A)
                 (A) (A) (A) (A) (A) (A) (A) (A) (A) (A) (A) (A)
                 (A) (A) (A) (A) (A) (A) (A) (A) (A) (A) (A) (A)
                 (A) (A) (A) (A) (A) (A) (A) (A) (A) (A) (A) (A)
                 (A) (A) (A) (A) (A) (A) (A) (A) (A) (A) (A) (A)
                 (A) (A) (A) (A) (A) (A) (A) (A) (A) (A) (A) (A)
                 (A) (A) (A) (A) (A) (A) (A) (A) (A) (A) (A) (A)
                 (A) (A) (A) (A) (A)
 The electronic state is 1-A.
 Alpha  occ. eigenvalues --  -89.17440 -24.77436 -24.77364 -24.77225 -19.24172
 Alpha  occ. eigenvalues --  -19.19756 -19.19477 -10.50027  -8.19952  -6.16512
 Alpha  occ. eigenvalues --   -6.16292  -6.16267  -1.34056  -1.25573  -1.25450
 Alpha  occ. eigenvalues --   -1.18832  -1.07354  -1.05526  -0.79560  -0.69775
 Alpha  occ. eigenvalues --   -0.63348  -0.62081  -0.61662  -0.55862  -0.51539
 Alpha  occ. eigenvalues --   -0.49738  -0.49571  -0.49313  -0.47097  -0.46089
 Alpha  occ. eigenvalues --   -0.45926  -0.43981  -0.40545  -0.38143  -0.36375
 Alpha  occ. eigenvalues --   -0.36262  -0.34168
 Alpha virt. eigenvalues --   -0.01872  -0.01263   0.02219   0.05452   0.09237
 Alpha virt. eigenvalues --    0.13956   0.15793   0.18618   0.28615   0.31438
 Alpha virt. eigenvalues --    0.34263   0.38756   0.45815   0.48606   0.51107
 Alpha virt. eigenvalues --    0.64703   0.68116   0.72682   0.75588   0.79214
 Alpha virt. eigenvalues --    0.81050   0.87705   0.88030   0.92796   0.97288
 Alpha virt. eigenvalues --    0.98875   0.99795   1.01027   1.01709   1.07677
 Alpha virt. eigenvalues --    1.10063   1.10765   1.11472   1.16109   1.16334
 Alpha virt. eigenvalues --    1.18161   1.27311   1.28935   1.31967   1.34126
 Alpha virt. eigenvalues --    1.34142   1.36245   1.37439   1.51300   1.54719
 Alpha virt. eigenvalues --    1.58740   1.60339   1.66317   1.71203   1.73873
 Alpha virt. eigenvalues --    1.75180   1.76422   1.77336   1.78822   1.79930
 Alpha virt. eigenvalues --    1.81251   1.82130   1.82699   1.87088   1.91591
 Alpha virt. eigenvalues --    1.93186   1.95189   2.01177   2.01427   2.03467
 Alpha virt. eigenvalues --    2.08518   2.12106   2.16588   2.18746   2.19442
 Alpha virt. eigenvalues --    2.25655   2.33322   2.47884   2.61830   2.65851
 Alpha virt. eigenvalues --    2.66217   2.73468   2.79158   2.91234   3.00651
 Alpha virt. eigenvalues --    3.00754   3.58243   3.81876   3.86764   3.93223
 Alpha virt. eigenvalues --    4.29411   4.30295   4.42833   5.06196
     Molecular Orbital Coefficients:
                           1         2         3         4         5
                           O         O         O         O         O
     Eigenvalues --   -89.17440 -24.77436 -24.77364 -24.77225 -19.24172
   1 1   C  1S         -0.00003  -0.00002  -0.00003  -0.00003  -0.00002
   2        2S         -0.00007   0.00005   0.00002   0.00003  -0.00015
   3        2PX         0.00005  -0.00038  -0.00030  -0.00033   0.00003
   4        2PY        -0.00000  -0.00038   0.00058  -0.00011   0.00000
   5        2PZ         0.00000   0.00039   0.00014  -0.00057   0.00002
   6        3S          0.00084   0.00018   0.00040   0.00033   0.00108
   7        3PX         0.00039   0.00046   0.00053   0.00049   0.00044
   8        3PY        -0.00003   0.00013  -0.00003  -0.00005  -0.00073
   9        3PZ         0.00001  -0.00014   0.00008   0.00011   0.00007
  10        4XX        -0.00004   0.00014   0.00006   0.00009   0.00006
  11        4YY        -0.00001   0.00024   0.00046   0.00006  -0.00003
  12        4ZZ        -0.00000   0.00024   0.00006   0.00045   0.00001
  13        4XY         0.00001   0.00019  -0.00019   0.00006   0.00003
  14        4XZ        -0.00000  -0.00019  -0.00006   0.00022  -0.00001
  15        4YZ        -0.00000  -0.00021   0.00012   0.00009  -0.00003
  16 2   F  1S          0.00002   0.00036   0.00051   0.99301  -0.00003
  17        2S          0.00011   0.00008   0.00004   0.01971  -0.00018
  18        2PX         0.00001  -0.00000   0.00000   0.00029  -0.00004
  19        2PY        -0.00000  -0.00000   0.00001   0.00015  -0.00001
  20        2PZ        -0.00000   0.00002   0.00001   0.00069   0.00000
  21        3S         -0.00041  -0.00009   0.00006   0.01481   0.00049
  22        3PX        -0.00014  -0.00001  -0.00003  -0.00016   0.00013
  23        3PY         0.00000   0.00004  -0.00013  -0.00010   0.00012
  24        3PZ        -0.00006  -0.00015  -0.00008  -0.00048  -0.00005
  25        4XX         0.00006   0.00004   0.00001  -0.00800  -0.00009
  26        4YY         0.00005   0.00002  -0.00009  -0.00799  -0.00015
  27        4ZZ         0.00007  -0.00011  -0.00006  -0.00837  -0.00017
  28        4XY        -0.00001  -0.00003   0.00001  -0.00004   0.00001
  29        4XZ        -0.00003  -0.00000  -0.00003  -0.00020  -0.00001
  30        4YZ         0.00001   0.00005  -0.00010  -0.00010   0.00003
  31 3   F  1S          0.00002   0.00103   0.99301  -0.00052  -0.00005
  32        2S          0.00011   0.00009   0.01973   0.00003  -0.00028
  33        2PX         0.00001  -0.00000   0.00024  -0.00000  -0.00001
  34        2PY         0.00000  -0.00002  -0.00070  -0.00001   0.00001
  35        2PZ         0.00000   0.00000  -0.00017  -0.00001   0.00000
  36        3S         -0.00040  -0.00008   0.01471   0.00000   0.00100
  37        3PX        -0.00013  -0.00000  -0.00013  -0.00001   0.00010
  38        3PY         0.00006   0.00015   0.00051   0.00009  -0.00011
  39        3PZ         0.00001  -0.00003   0.00012   0.00012  -0.00008
  40        4XX         0.00006   0.00003  -0.00797   0.00003  -0.00016
  41        4YY         0.00007  -0.00012  -0.00837  -0.00005  -0.00019
  42        4ZZ         0.00005   0.00001  -0.00799  -0.00008  -0.00020
  43        4XY         0.00003  -0.00000   0.00017   0.00002  -0.00001
  44        4XZ         0.00001   0.00003   0.00005  -0.00002  -0.00001
  45        4YZ         0.00001   0.00005  -0.00012  -0.00009   0.00001
  46 4   F  1S          0.00002   0.99301  -0.00102  -0.00035   0.00005
  47        2S          0.00011   0.01969   0.00005   0.00008   0.00030
  48        2PX         0.00001   0.00037   0.00001   0.00001   0.00003
  49        2PY        -0.00001   0.00046   0.00002   0.00000   0.00000
  50        2PZ         0.00000  -0.00047  -0.00000  -0.00002  -0.00002
  51        3S         -0.00042   0.01489  -0.00010  -0.00014  -0.00110
  52        3PX        -0.00015  -0.00022  -0.00005  -0.00005  -0.00021
  53        3PY        -0.00002  -0.00031  -0.00017  -0.00003  -0.00005
  54        3PZ         0.00003   0.00031   0.00001   0.00016   0.00018
  55        4XX         0.00006  -0.00805   0.00005   0.00005   0.00020
  56        4YY         0.00007  -0.00816  -0.00012   0.00005   0.00022
  57        4ZZ         0.00007  -0.00816   0.00005  -0.00011   0.00018
  58        4XY        -0.00002  -0.00017  -0.00002  -0.00003  -0.00002
  59        4XZ         0.00002   0.00017   0.00003   0.00001   0.00003
  60        4YZ        -0.00002   0.00021   0.00003   0.00004   0.00001
  61 5   S  1S          0.99612   0.00000   0.00000   0.00000   0.00001
  62        2S          0.01487   0.00003   0.00006   0.00005   0.00003
  63        2PX        -0.00001   0.00001   0.00001   0.00001   0.00000
  64        2PY         0.00002  -0.00000   0.00000  -0.00000  -0.00005
  65        2PZ        -0.00002   0.00000   0.00000  -0.00000   0.00006
  66        3S         -0.02415   0.00013   0.00025   0.00021   0.00010
  67        3PX         0.00009  -0.00011  -0.00009  -0.00009  -0.00011
  68        3PY        -0.00006   0.00001   0.00000   0.00003   0.00017
  69        3PZ         0.00003  -0.00001  -0.00003   0.00001  -0.00018
  70        4S          0.00153  -0.00116  -0.00157  -0.00141  -0.00328
  71        4PX        -0.00001   0.00052   0.00050   0.00054   0.00042
  72        4PY        -0.00005   0.00016  -0.00088   0.00004  -0.00040
  73        4PZ         0.00005  -0.00019  -0.00018   0.00070   0.00144
  74        5XX         0.00850   0.00001   0.00002   0.00002   0.00011
  75        5YY         0.00860   0.00003   0.00004   0.00002   0.00021
  76        5ZZ         0.00862   0.00002   0.00002   0.00004   0.00020
  77        5XY        -0.00001  -0.00000  -0.00000  -0.00000   0.00006
  78        5XZ         0.00001  -0.00000   0.00000   0.00001  -0.00003
  79        5YZ         0.00004  -0.00003  -0.00000  -0.00000  -0.00022
  80 6   O  1S          0.00001  -0.00003  -0.00004   0.00001  -0.00005
  81        2S         -0.00000  -0.00013  -0.00020   0.00005  -0.00003
  82        2PX         0.00003   0.00003   0.00002   0.00001  -0.00001
  83        2PY         0.00004   0.00001  -0.00002  -0.00001  -0.00004
  84        2PZ         0.00012   0.00000   0.00002   0.00000   0.00002
  85        3S          0.00042   0.00062   0.00105  -0.00025   0.00031
  86        3PX        -0.00006  -0.00018  -0.00021  -0.00005  -0.00005
  87        3PY        -0.00009  -0.00010   0.00009   0.00004   0.00011
  88        3PZ        -0.00028  -0.00009  -0.00023  -0.00002  -0.00022
  89        4XX         0.00001  -0.00008  -0.00012   0.00004  -0.00001
  90        4YY         0.00003  -0.00008  -0.00014   0.00004  -0.00005
  91        4ZZ        -0.00015  -0.00009  -0.00012   0.00004  -0.00007
  92        4XY        -0.00004   0.00002  -0.00001  -0.00000  -0.00001
  93        4XZ        -0.00011   0.00002   0.00003   0.00000   0.00002
  94        4YZ        -0.00009   0.00001  -0.00002  -0.00001   0.00005
  95 7   O  1S          0.00001  -0.00003   0.00002  -0.00004  -0.00004
  96        2S         -0.00001  -0.00012   0.00006  -0.00017  -0.00022
  97        2PX         0.00003   0.00003   0.00001   0.00002   0.00002
  98        2PY        -0.00012  -0.00000  -0.00001  -0.00002   0.00001
  99        2PZ        -0.00005  -0.00002   0.00001   0.00002   0.00003
 100        3S          0.00044   0.00060  -0.00032   0.00087   0.00144
 101        3PX        -0.00006  -0.00018  -0.00004  -0.00018  -0.00024
 102        3PY         0.00028   0.00009   0.00003   0.00021   0.00031
 103        3PZ         0.00012   0.00012  -0.00004  -0.00007  -0.00009
 104        4XX         0.00002  -0.00008   0.00005  -0.00010  -0.00011
 105        4YY        -0.00015  -0.00009   0.00006  -0.00009  -0.00019
 106        4ZZ         0.00001  -0.00008   0.00005  -0.00012  -0.00016
 107        4XY         0.00009  -0.00002  -0.00000  -0.00002  -0.00004
 108        4XZ         0.00004  -0.00002   0.00000   0.00000   0.00003
 109        4YZ        -0.00011   0.00001  -0.00000  -0.00002   0.00003
 110 8   O  1S         -0.00001  -0.00000  -0.00003  -0.00003   0.99274
 111        2S         -0.00003  -0.00000  -0.00014  -0.00016   0.02589
 112        2PX        -0.00002   0.00001   0.00001   0.00001   0.00026
 113        2PY        -0.00001  -0.00000   0.00002   0.00002   0.00010
 114        2PZ        -0.00002   0.00000  -0.00001  -0.00000   0.00093
 115        3S          0.00065   0.00004   0.00072   0.00081   0.01203
 116        3PX         0.00003  -0.00006  -0.00015  -0.00014  -0.00036
 117        3PY        -0.00014  -0.00000  -0.00013  -0.00021  -0.00053
 118        3PZ         0.00027   0.00002   0.00020   0.00005   0.00010
 119        4XX        -0.00005  -0.00000  -0.00006  -0.00009  -0.00808
 120        4YY        -0.00010  -0.00000  -0.00008  -0.00008  -0.00811
 121        4ZZ        -0.00010   0.00000  -0.00004  -0.00011  -0.00815
 122        4XY        -0.00001   0.00000   0.00001   0.00002  -0.00001
 123        4XZ         0.00006  -0.00000  -0.00002  -0.00001  -0.00003
 124        4YZ         0.00011   0.00001   0.00000   0.00001   0.00000
 125 9   H  1S         -0.00010   0.00000  -0.00003  -0.00001   0.00044
 126        2S         -0.00013  -0.00001   0.00016   0.00002  -0.00096
                           6         7         8         9        10
                           O         O         O         O         O
     Eigenvalues --   -19.19756 -19.19477 -10.50027  -8.19952  -6.16512
   1 1   C  1S         -0.00001  -0.00002   0.99335   0.00002  -0.00001
   2        2S         -0.00008  -0.00012   0.04675   0.00075   0.00015
   3        2PX         0.00002   0.00001  -0.00076  -0.00007   0.00002
   4        2PY         0.00004  -0.00002   0.00007  -0.00003   0.00010
   5        2PZ         0.00001  -0.00004  -0.00001   0.00001  -0.00009
   6        3S          0.00038   0.00062  -0.01217  -0.00232   0.00007
   7        3PX         0.00023   0.00037  -0.00306  -0.00190  -0.00011
   8        3PY        -0.00044   0.00047  -0.00019   0.00038   0.00120
   9        3PZ        -0.00051   0.00044   0.00001  -0.00003  -0.00153
  10        4XX         0.00004   0.00004  -0.00833  -0.00064  -0.00014
  11        4YY        -0.00002   0.00001  -0.00775  -0.00015  -0.00009
  12        4ZZ         0.00001  -0.00003  -0.00773  -0.00017  -0.00005
  13        4XY         0.00001  -0.00002   0.00008   0.00003   0.00028
  14        4XZ         0.00002  -0.00001  -0.00004  -0.00003  -0.00027
  15        4YZ         0.00001   0.00001  -0.00002  -0.00000   0.00014
  16 2   F  1S         -0.00000   0.00001  -0.00008  -0.00016   0.00004
  17        2S         -0.00001   0.00004  -0.00015  -0.00088   0.00027
  18        2PX        -0.00003   0.00004   0.00000  -0.00020  -0.00001
  19        2PY        -0.00001   0.00000  -0.00000   0.00002   0.00011
  20        2PZ         0.00001  -0.00000   0.00003  -0.00002  -0.00004
  21        3S         -0.00013  -0.00004   0.00101   0.00284  -0.00115
  22        3PX         0.00006  -0.00012  -0.00004   0.00107  -0.00009
  23        3PY         0.00002  -0.00003  -0.00010  -0.00006  -0.00055
  24        3PZ        -0.00012   0.00006  -0.00072   0.00031   0.00003
  25        4XX         0.00002   0.00003  -0.00009  -0.00046   0.00012
  26        4YY        -0.00004   0.00006   0.00004  -0.00066   0.00011
  27        4ZZ        -0.00005   0.00007  -0.00078  -0.00063   0.00022
  28        4XY        -0.00001   0.00000  -0.00004   0.00003  -0.00011
  29        4XZ        -0.00001  -0.00001  -0.00023   0.00020   0.00003
  30        4YZ         0.00002  -0.00002  -0.00021  -0.00002  -0.00004
  31 3   F  1S          0.00001  -0.00001  -0.00010  -0.00015   0.00003
  32        2S          0.00005  -0.00003  -0.00022  -0.00084   0.00018
  33        2PX         0.00004  -0.00003   0.00001  -0.00021  -0.00001
  34        2PY         0.00000  -0.00001  -0.00002   0.00002   0.00005
  35        2PZ        -0.00000   0.00001   0.00000  -0.00001  -0.00013
  36        3S         -0.00007  -0.00005   0.00131   0.00267  -0.00075
  37        3PX        -0.00013   0.00008  -0.00000   0.00107  -0.00005
  38        3PY        -0.00007   0.00012   0.00064  -0.00029  -0.00013
  39        3PZ         0.00003  -0.00001   0.00013  -0.00001   0.00062
  40        4XX         0.00004  -0.00000  -0.00011  -0.00046   0.00008
  41        4YY         0.00008  -0.00008  -0.00082  -0.00061   0.00018
  42        4ZZ         0.00007  -0.00007  -0.00001  -0.00064   0.00006
  43        4XY         0.00001   0.00001   0.00017  -0.00020  -0.00004
  44        4XZ        -0.00000   0.00002   0.00003  -0.00005   0.00012
  45        4YZ        -0.00002   0.00002  -0.00025  -0.00001  -0.00006
  46 4   F  1S         -0.00003  -0.00003  -0.00008  -0.00013  -0.00019
  47        2S         -0.00016  -0.00014  -0.00010  -0.00075  -0.00109
  48        2PX        -0.00003  -0.00002  -0.00001  -0.00018  -0.00012
  49        2PY        -0.00001   0.00001   0.00002   0.00002   0.00001
  50        2PZ        -0.00001   0.00001  -0.00003  -0.00000  -0.00002
  51        3S          0.00050   0.00043   0.00074   0.00243   0.00388
  52        3PX         0.00009   0.00006  -0.00013   0.00100   0.00086
  53        3PY         0.00008  -0.00006  -0.00055   0.00006   0.00014
  54        3PZ         0.00004  -0.00008   0.00061  -0.00014  -0.00008
  55        4XX        -0.00010  -0.00009  -0.00010  -0.00033  -0.00054
  56        4YY        -0.00011  -0.00016  -0.00032  -0.00056  -0.00077
  57        4ZZ        -0.00017  -0.00009  -0.00034  -0.00054  -0.00078
  58        4XY        -0.00001   0.00000  -0.00023   0.00011   0.00004
  59        4XZ        -0.00001   0.00001   0.00024  -0.00012  -0.00004
  60        4YZ        -0.00001  -0.00001   0.00050   0.00002   0.00008
  61 5   S  1S          0.00001   0.00002  -0.00001  -0.27991  -0.00091
  62        2S         -0.00006  -0.00004  -0.00019   1.02298   0.00355
  63        2PX         0.00002   0.00002  -0.00000   0.00039  -0.21693
  64        2PY        -0.00001  -0.00000  -0.00000   0.00223  -0.66117
  65        2PZ        -0.00000   0.00001   0.00000  -0.00217   0.70565
  66        3S          0.00076   0.00082  -0.00066   0.07223   0.00025
  67        3PX        -0.00003  -0.00003  -0.00009   0.00032  -0.00652
  68        3PY        -0.00017   0.00010  -0.00003   0.00030  -0.02086
  69        3PZ        -0.00010   0.00018   0.00002  -0.00018   0.02221
  70        4S         -0.00298  -0.00347   0.00758  -0.00803  -0.00190
  71        4PX        -0.00043  -0.00047  -0.00297   0.00163   0.00178
  72        4PY         0.00192  -0.00141   0.00116  -0.00087   0.00332
  73        4PZ         0.00141  -0.00190  -0.00056   0.00027  -0.00323
  74        5XX        -0.00017  -0.00015  -0.00011  -0.01516   0.00061
  75        5YY        -0.00015  -0.00018  -0.00012  -0.01452  -0.00051
  76        5ZZ        -0.00019  -0.00012  -0.00010  -0.01463   0.00007
  77        5XY         0.00000   0.00002   0.00002  -0.00003  -0.00075
  78        5XZ        -0.00002   0.00001  -0.00001   0.00010   0.00079
  79        5YZ         0.00002   0.00002   0.00007   0.00031   0.00199
  80 6   O  1S         -0.00098   0.99273   0.00007  -0.00010  -0.00017
  81        2S          0.00004   0.02570   0.00031   0.00047   0.00015
  82        2PX        -0.00004  -0.00037  -0.00003   0.00000   0.00002
  83        2PY         0.00005  -0.00031   0.00003  -0.00017  -0.00003
  84        2PZ        -0.00001  -0.00089  -0.00001  -0.00030  -0.00016
  85        3S         -0.00032   0.01273  -0.00185  -0.00350  -0.00129
  86        3PX         0.00018  -0.00028   0.00054   0.00050   0.00064
  87        3PY        -0.00033  -0.00008  -0.00010   0.00123   0.00118
  88        3PZ        -0.00008  -0.00060   0.00044   0.00274   0.00126
  89        4XX         0.00006  -0.00811   0.00022   0.00028  -0.00009
  90        4YY         0.00004  -0.00812   0.00014   0.00022  -0.00031
  91        4ZZ         0.00008  -0.00807   0.00014   0.00023   0.00038
  92        4XY         0.00003  -0.00000  -0.00001   0.00003  -0.00028
  93        4XZ        -0.00001   0.00003  -0.00005   0.00007  -0.00013
  94        4YZ         0.00001   0.00000   0.00005   0.00002  -0.00044
  95 7   O  1S          0.99274   0.00101   0.00005  -0.00008  -0.00015
  96        2S          0.02570   0.00007   0.00025   0.00059  -0.00002
  97        2PX        -0.00036  -0.00004  -0.00003  -0.00001   0.00004
  98        2PY         0.00088   0.00001   0.00002   0.00032   0.00008
  99        2PZ         0.00042  -0.00005  -0.00003   0.00020   0.00002
 100        3S          0.01261  -0.00018  -0.00144  -0.00416  -0.00030
 101        3PX        -0.00023   0.00017   0.00048   0.00049   0.00030
 102        3PY         0.00057   0.00010  -0.00044  -0.00278  -0.00059
 103        3PZ         0.00013   0.00032   0.00005  -0.00146  -0.00113
 104        4XX        -0.00810   0.00003   0.00018   0.00036  -0.00016
 105        4YY        -0.00805   0.00006   0.00008   0.00033   0.00035
 106        4ZZ        -0.00810   0.00001   0.00010   0.00031  -0.00048
 107        4XY        -0.00003   0.00001   0.00005  -0.00007   0.00009
 108        4XZ        -0.00000  -0.00003   0.00002  -0.00003   0.00025
 109        4YZ         0.00002   0.00001   0.00005   0.00003  -0.00041
 110 8   O  1S         -0.00005  -0.00000   0.00007   0.00003  -0.00003
 111        2S         -0.00011  -0.00015   0.00035   0.00046  -0.00126
 112        2PX        -0.00002  -0.00000   0.00000   0.00017  -0.00007
 113        2PY         0.00004  -0.00002  -0.00003   0.00009  -0.00006
 114        2PZ         0.00004  -0.00005   0.00000   0.00004  -0.00006
 115        3S          0.00077   0.00099  -0.00214  -0.00256   0.00558
 116        3PX         0.00004  -0.00001   0.00035  -0.00031  -0.00095
 117        3PY        -0.00037   0.00000   0.00049   0.00125  -0.00307
 118        3PZ        -0.00013   0.00044  -0.00038  -0.00182   0.00344
 119        4XX        -0.00007  -0.00008   0.00029   0.00035  -0.00072
 120        4YY        -0.00012  -0.00011   0.00013  -0.00009   0.00022
 121        4ZZ        -0.00011  -0.00015   0.00011   0.00007  -0.00015
 122        4XY         0.00003  -0.00001  -0.00002  -0.00024   0.00060
 123        4XZ         0.00002  -0.00003   0.00001   0.00001  -0.00027
 124        4YZ        -0.00002   0.00000  -0.00004   0.00031  -0.00083
 125 9   H  1S          0.00003  -0.00009   0.00009   0.00040  -0.00055
 126        2S         -0.00007   0.00013  -0.00033   0.00094  -0.00075
                          11        12        13        14        15
                           O         O         O         O         O
     Eigenvalues --    -6.16292  -6.16267  -1.34056  -1.25573  -1.25450
   1 1   C  1S         -0.00008  -0.00008  -0.09859   0.00003  -0.00105
   2        2S         -0.00141  -0.00148   0.19967  -0.00029   0.00194
   3        2PX         0.00002   0.00004  -0.05980  -0.01461  -0.00023
   4        2PY        -0.00006   0.00004   0.00597  -0.13451  -0.05269
   5        2PZ        -0.00005   0.00004  -0.00110   0.05252  -0.13551
   6        3S          0.00476   0.00495   0.01538   0.00059   0.00131
   7        3PX         0.00276   0.00298   0.01696   0.00089   0.00073
   8        3PY        -0.00134   0.00173  -0.00202   0.00398   0.00309
   9        3PZ        -0.00192   0.00158   0.00055   0.00005   0.00402
  10        4XX         0.00091   0.00101  -0.00968   0.00283  -0.00035
  11        4YY         0.00004   0.00019   0.00030  -0.00953  -0.01792
  12        4ZZ         0.00017   0.00003   0.00014   0.00645   0.01811
  13        4XY        -0.00028   0.00011   0.00104   0.01578   0.00414
  14        4XZ        -0.00015   0.00019  -0.00060  -0.00827   0.01597
  15        4YZ         0.00003   0.00002  -0.00010  -0.01851   0.00682
  16 2   F  1S          0.00029   0.00008  -0.11704   0.02206  -0.18702
  17        2S          0.00173   0.00046   0.25721  -0.04997   0.42168
  18        2PX         0.00023   0.00020   0.02157  -0.00496   0.03144
  19        2PY        -0.00005   0.00008   0.01440  -0.01375   0.01197
  20        2PZ         0.00007   0.00001   0.06408  -0.00451   0.06448
  21        3S         -0.00615  -0.00121   0.25007  -0.04557   0.39360
  22        3PX        -0.00155  -0.00099   0.01138  -0.00296   0.01686
  23        3PY         0.00012  -0.00040   0.00974  -0.00894   0.00553
  24        3PZ        -0.00085  -0.00013   0.04167  -0.00144   0.03265
  25        4XX         0.00091   0.00021   0.00381  -0.00131   0.00930
  26        4YY         0.00113   0.00038   0.00212  -0.00151   0.00679
  27        4ZZ         0.00115   0.00034   0.01633  -0.00130   0.01702
  28        4XY        -0.00001  -0.00010   0.00133  -0.00069   0.00113
  29        4XZ        -0.00028  -0.00017   0.00615  -0.00071   0.00577
  30        4YZ         0.00006  -0.00008   0.00382  -0.00181   0.00228
  31 3   F  1S          0.00008   0.00030  -0.11973   0.14997   0.11116
  32        2S          0.00043   0.00179   0.26304  -0.33793  -0.25037
  33        2PX         0.00018   0.00023   0.01806  -0.02275  -0.01587
  34        2PY        -0.00003  -0.00008  -0.06558   0.04978   0.04074
  35        2PZ        -0.00009   0.00004  -0.01677   0.02019  -0.00050
  36        3S         -0.00118  -0.00637   0.25631  -0.31615  -0.23504
  37        3PX        -0.00088  -0.00156   0.00915  -0.01272  -0.00870
  38        3PY         0.00020   0.00097  -0.04240   0.02468   0.02107
  39        3PZ         0.00046  -0.00007  -0.01103   0.01117  -0.00189
  40        4XX         0.00023   0.00096   0.00328  -0.00702  -0.00508
  41        4YY         0.00029   0.00114   0.01687  -0.01326  -0.01069
  42        4ZZ         0.00033   0.00116   0.00239  -0.00602  -0.00354
  43        4XY         0.00017   0.00030  -0.00523   0.00409   0.00303
  44        4XZ         0.00010   0.00004  -0.00130   0.00127   0.00039
  45        4YZ        -0.00009   0.00006   0.00453  -0.00331  -0.00057
  46 4   F  1S          0.00014   0.00015  -0.11960  -0.17213   0.07269
  47        2S          0.00079   0.00089   0.26281   0.38844  -0.16425
  48        2PX         0.00020   0.00021   0.02917   0.03541  -0.01541
  49        2PY        -0.00008   0.00010   0.04487   0.03587  -0.02464
  50        2PZ        -0.00010   0.00007  -0.04531  -0.04392   0.00853
  51        3S         -0.00256  -0.00294   0.25584   0.36143  -0.15223
  52        3PX        -0.00111  -0.00122   0.01648   0.01886  -0.00833
  53        3PY         0.00030  -0.00066   0.02947   0.01699  -0.01375
  54        3PZ         0.00063  -0.00021  -0.02953  -0.02262   0.00240
  55        4XX         0.00037   0.00041   0.00523   0.00984  -0.00429
  56        4YY         0.00066   0.00056   0.00852   0.00976  -0.00577
  57        4ZZ         0.00050   0.00072   0.00868   0.01118  -0.00308
  58        4XY        -0.00004  -0.00022   0.00553   0.00406  -0.00231
  59        4XZ         0.00021   0.00007  -0.00564  -0.00463   0.00140
  60        4YZ        -0.00001   0.00000  -0.00837  -0.00513   0.00209
  61 5   S  1S         -0.00003  -0.00011   0.00459  -0.00036   0.00005
  62        2S          0.00025   0.00051  -0.02181   0.00185  -0.00016
  63        2PX         0.67905   0.68853   0.00780   0.00036   0.00002
  64        2PY         0.41061  -0.61322  -0.00089   0.00337   0.00163
  65        2PZ         0.59338  -0.36303   0.00037  -0.00107   0.00346
  66        3S         -0.00012  -0.00030   0.03340  -0.00240   0.00057
  67        3PX         0.02135   0.02152  -0.01828  -0.00048  -0.00008
  68        3PY         0.01377  -0.02030   0.00211  -0.00709  -0.00357
  69        3PZ         0.01972  -0.01204  -0.00096   0.00214  -0.00754
  70        4S          0.00085   0.00190   0.01332  -0.00266  -0.00197
  71        4PX        -0.00347  -0.00330  -0.00535  -0.00209   0.00016
  72        4PY        -0.00112   0.00175   0.00202  -0.01458  -0.00881
  73        4PZ        -0.00135   0.00027  -0.00061   0.00260  -0.01487
  74        5XX        -0.00060  -0.00076   0.00871   0.00081  -0.00002
  75        5YY         0.00004   0.00169  -0.00192  -0.00067  -0.00006
  76        5ZZ         0.00165   0.00022  -0.00205  -0.00024   0.00016
  77        5XY         0.00092  -0.00063  -0.00121   0.00305   0.00098
  78        5XZ         0.00079  -0.00072   0.00071  -0.00139   0.00297
  79        5YZ         0.00032   0.00072   0.00047   0.00027  -0.00010
  80 6   O  1S         -0.00027   0.00016  -0.00395   0.00062   0.00120
  81        2S          0.00114  -0.00006   0.00963  -0.00195  -0.00529
  82        2PX        -0.00021  -0.00001  -0.00276   0.00023   0.00103
  83        2PY        -0.00013  -0.00001  -0.00128  -0.00061   0.00030
  84        2PZ        -0.00043   0.00010  -0.00442   0.00098   0.00128
  85        3S         -0.00721   0.00116   0.00301   0.00170   0.01001
  86        3PX         0.00172  -0.00088   0.00081   0.00028   0.00004
  87        3PY         0.00132   0.00030  -0.00061   0.00229  -0.00021
  88        3PZ         0.00466  -0.00088  -0.00075  -0.00125  -0.00120
  89        4XX         0.00067   0.00034   0.00032  -0.00024  -0.00098
  90        4YY         0.00059  -0.00008   0.00038  -0.00038  -0.00078
  91        4ZZ         0.00026  -0.00011   0.00130  -0.00006  -0.00128
  92        4XY         0.00011   0.00003   0.00018   0.00001   0.00002
  93        4XZ         0.00017   0.00037   0.00044  -0.00010  -0.00011
  94        4YZ         0.00005  -0.00043   0.00050  -0.00026  -0.00032
  95 7   O  1S          0.00019  -0.00026  -0.00388  -0.00028  -0.00113
  96        2S         -0.00021   0.00126   0.00937   0.00226   0.00437
  97        2PX         0.00000  -0.00021  -0.00256  -0.00054  -0.00081
  98        2PY        -0.00018   0.00049   0.00432   0.00006   0.00134
  99        2PZ        -0.00002   0.00019   0.00174   0.00065  -0.00012
 100        3S          0.00208  -0.00781   0.00365  -0.00685  -0.00702
 101        3PX        -0.00102   0.00152   0.00079   0.00048  -0.00035
 102        3PY         0.00158  -0.00478   0.00068   0.00032  -0.00137
 103        3PZ         0.00005  -0.00185   0.00067  -0.00190   0.00133
 104        4XX         0.00024   0.00073   0.00025   0.00056   0.00074
 105        4YY        -0.00011   0.00039   0.00120   0.00095   0.00076
 106        4ZZ        -0.00018   0.00063   0.00042   0.00038   0.00069
 107        4XY        -0.00038  -0.00021  -0.00038   0.00003  -0.00013
 108        4XZ        -0.00009  -0.00013  -0.00017   0.00002   0.00006
 109        4YZ        -0.00037  -0.00002   0.00058   0.00009   0.00041
 110 8   O  1S          0.00016   0.00007  -0.00417   0.00273  -0.00050
 111        2S          0.00075   0.00025   0.00955  -0.00633   0.00155
 112        2PX         0.00000  -0.00012  -0.00161   0.00054  -0.00011
 113        2PY         0.00013  -0.00009  -0.00206   0.00058  -0.00072
 114        2PZ         0.00010  -0.00001   0.00321  -0.00189  -0.00028
 115        3S         -0.00335  -0.00108   0.00465  -0.00071  -0.00133
 116        3PX        -0.00043   0.00021   0.00036   0.00185  -0.00105
 117        3PY        -0.00069   0.00094   0.00000  -0.00114   0.00107
 118        3PZ        -0.00145   0.00036   0.00087   0.00061   0.00133
 119        4XX         0.00069   0.00035   0.00017  -0.00029   0.00025
 120        4YY         0.00082  -0.00038   0.00058   0.00000  -0.00018
 121        4ZZ        -0.00008   0.00061   0.00055   0.00022   0.00043
 122        4XY         0.00025   0.00025   0.00021  -0.00019   0.00019
 123        4XZ        -0.00021  -0.00039  -0.00001   0.00026   0.00010
 124        4YZ         0.00020   0.00015  -0.00055   0.00013  -0.00016
 125 9   H  1S          0.00047  -0.00015   0.00165  -0.00171  -0.00004
 126        2S          0.00158  -0.00033  -0.00062   0.00259   0.00141
                          16        17        18        19        20
                           O         O         O         O         O
     Eigenvalues --    -1.18832  -1.07354  -1.05526  -0.79560  -0.69775
   1 1   C  1S         -0.00609   0.00221  -0.00021  -0.12621   0.09086
   2        2S          0.00087  -0.00281   0.00009   0.29123  -0.22285
   3        2PX         0.03429  -0.00600   0.00053   0.15381   0.18270
   4        2PY        -0.00387   0.00273   0.00138  -0.00973  -0.00245
   5        2PZ         0.00176  -0.00146   0.00278   0.00444  -0.00921
   6        3S          0.05315  -0.00894   0.00163   0.21706  -0.12883
   7        3PX         0.02204  -0.00432   0.00101   0.08891  -0.00591
   8        3PY        -0.00075   0.00337   0.00332  -0.00481   0.00377
   9        3PZ         0.00042  -0.00270   0.00453   0.00130  -0.00576
  10        4XX         0.00691  -0.00117   0.00026   0.00611   0.01080
  11        4YY        -0.00261   0.00018  -0.00088  -0.01110   0.00257
  12        4ZZ        -0.00249   0.00074   0.00078  -0.01116   0.00299
  13        4XY        -0.00041   0.00154   0.00046  -0.00128   0.00005
  14        4XZ         0.00013  -0.00078   0.00123   0.00035  -0.00041
  15        4YZ        -0.00032  -0.00090   0.00020  -0.00031   0.00005
  16 2   F  1S          0.01131  -0.00083  -0.00385   0.04838  -0.04305
  17        2S         -0.02543   0.00085   0.01162  -0.10693   0.09218
  18        2PX         0.00243  -0.00064  -0.00158   0.08177  -0.01155
  19        2PY        -0.00127   0.00091   0.00038   0.01786  -0.04325
  20        2PZ        -0.00371  -0.00023   0.00000   0.09531  -0.20485
  21        3S         -0.02853   0.00397   0.00479  -0.14894   0.14157
  22        3PX         0.00058   0.00091  -0.00386   0.04311  -0.00096
  23        3PY        -0.00107   0.00142   0.00072   0.01070  -0.02591
  24        3PZ        -0.00441  -0.00010   0.00059   0.05588  -0.12217
  25        4XX         0.00025  -0.00043   0.00069   0.00313   0.00312
  26        4YY        -0.00103  -0.00055   0.00170  -0.00240   0.00065
  27        4ZZ        -0.00160  -0.00051   0.00195   0.00704  -0.01558
  28        4XY        -0.00007   0.00064   0.00023   0.00140  -0.00004
  29        4XZ        -0.00016  -0.00009  -0.00026   0.00723  -0.00195
  30        4YZ        -0.00020   0.00000   0.00005   0.00221  -0.00444
  31 3   F  1S          0.01269   0.00185   0.00292   0.04879  -0.04352
  32        2S         -0.02867  -0.00721  -0.00852  -0.10729   0.09325
  33        2PX         0.00276   0.00043   0.00123   0.07694  -0.00080
  34        2PY         0.00393   0.00061  -0.00034  -0.10136   0.20809
  35        2PZ         0.00122  -0.00075   0.00082  -0.02387   0.04877
  36        3S         -0.03151   0.00155  -0.00442  -0.15161   0.14380
  37        3PX         0.00125   0.00327   0.00272   0.04010   0.00492
  38        3PY         0.00468   0.00019   0.00026  -0.05919   0.12356
  39        3PZ         0.00132  -0.00071   0.00140  -0.01402   0.02923
  40        4XX         0.00035  -0.00079  -0.00043   0.00261   0.00307
  41        4YY        -0.00178  -0.00173  -0.00135   0.00785  -0.01540
  42        4ZZ        -0.00114  -0.00157  -0.00119  -0.00196   0.00062
  43        4XY         0.00005  -0.00007  -0.00031  -0.00696   0.00075
  44        4XZ         0.00003  -0.00048   0.00053  -0.00167  -0.00018
  45        4YZ        -0.00024  -0.00008  -0.00008   0.00287  -0.00489
  46 4   F  1S          0.00916  -0.00456   0.00112   0.04691  -0.04948
  47        2S         -0.01892   0.01162  -0.00309  -0.10438   0.10585
  48        2PX         0.00230  -0.00184   0.00051   0.08953  -0.05571
  49        2PY        -0.00253   0.00029   0.00056   0.05999  -0.16090
  50        2PZ         0.00232  -0.00006   0.00061  -0.06272   0.16006
  51        3S         -0.02677   0.00984  -0.00195  -0.14215   0.16573
  52        3PX        -0.00112  -0.00199   0.00072   0.04767  -0.02782
  53        3PY        -0.00296   0.00108   0.00069   0.03627  -0.09522
  54        3PZ         0.00295  -0.00023   0.00095  -0.03776   0.09486
  55        4XX         0.00081   0.00026  -0.00008   0.00396   0.00105
  56        4YY        -0.00029   0.00105  -0.00048   0.00118  -0.00736
  57        4ZZ        -0.00027   0.00102  -0.00027   0.00147  -0.00737
  58        4XY        -0.00028   0.00011   0.00043   0.00531  -0.00386
  59        4XZ         0.00027   0.00019   0.00042  -0.00557   0.00382
  60        4YZ         0.00035   0.00002  -0.00002  -0.00502   0.01044
  61 5   S  1S          0.05152  -0.01310   0.00207   0.03001   0.02936
  62        2S         -0.23038   0.05873  -0.00934  -0.12978  -0.13033
  63        2PX        -0.03242   0.00856  -0.00532   0.10901   0.02240
  64        2PY        -0.00170  -0.08866  -0.07544  -0.02873  -0.04079
  65        2PZ        -0.00222   0.02871  -0.11517   0.02326   0.04090
  66        3S          0.47865  -0.12947   0.02086   0.31931   0.31515
  67        3PX         0.06142  -0.01795   0.01163  -0.27343  -0.05517
  68        3PY         0.00664   0.19521   0.16935   0.07183   0.10274
  69        3PZ         0.00213  -0.06202   0.25695  -0.05790  -0.10333
  70        4S         -0.05934   0.00316  -0.00489   0.01802   0.12988
  71        4PX         0.00026   0.00219  -0.00209   0.01189  -0.04015
  72        4PY        -0.01085  -0.02002  -0.01901  -0.00240   0.01415
  73        4PZ         0.00624   0.00676  -0.02426   0.00305  -0.00837
  74        5XX        -0.03179   0.00873   0.00074   0.04167  -0.00917
  75        5YY         0.00424  -0.00218  -0.04919  -0.02475  -0.01089
  76        5ZZ         0.00266   0.00851   0.04496  -0.02110  -0.00102
  77        5XY         0.00076   0.02762   0.02732  -0.00246   0.00401
  78        5XZ         0.00352  -0.00820   0.04098  -0.00118  -0.00508
  79        5YZ         0.01482  -0.05726   0.01042  -0.02109  -0.02359
  80 6   O  1S         -0.09637   0.03962  -0.16102   0.05256   0.04340
  81        2S          0.20589  -0.08897   0.35712  -0.12021  -0.09404
  82        2PX        -0.03276   0.01349  -0.04873  -0.03365  -0.02462
  83        2PY        -0.02856   0.02336  -0.03368   0.00446  -0.00039
  84        2PZ        -0.09005   0.02502  -0.10817  -0.00157  -0.04033
  85        3S          0.19559  -0.07952   0.32616  -0.13500  -0.14450
  86        3PX        -0.01408   0.00574  -0.01511  -0.01821  -0.00604
  87        3PY        -0.00786   0.01065  -0.00518  -0.00094  -0.00255
  88        3PZ        -0.03699   0.00937  -0.03022  -0.00276  -0.01313
  89        4XX        -0.00325   0.00030  -0.00264   0.00321   0.00295
  90        4YY        -0.00393  -0.00008  -0.00511  -0.00000   0.00111
  91        4ZZ         0.01128  -0.00346   0.00777   0.00093   0.00596
  92        4XY         0.00325  -0.00137   0.00240   0.00050  -0.00019
  93        4XZ         0.00772  -0.00192   0.00746   0.00370   0.00255
  94        4YZ         0.00680  -0.00350   0.00397  -0.00025   0.00072
  95 7   O  1S         -0.09220   0.11309   0.12211   0.05641   0.05039
  96        2S          0.19950  -0.25161  -0.27280  -0.13090  -0.11247
  97        2PX        -0.02869   0.03275   0.03453  -0.03160  -0.02092
  98        2PY         0.08529  -0.07591  -0.08371   0.00404   0.04849
  99        2PZ         0.03709  -0.04333  -0.02769  -0.00791  -0.00522
 100        3S          0.18140  -0.22400  -0.24062  -0.14064  -0.15938
 101        3PX        -0.01261   0.01090   0.01075  -0.01641  -0.00367
 102        3PY         0.03353  -0.02115  -0.01915   0.00536   0.01754
 103        3PZ         0.01246  -0.01357  -0.00379  -0.00149  -0.00321
 104        4XX        -0.00274   0.00221   0.00160   0.00232   0.00204
 105        4YY         0.01136  -0.00570  -0.00582   0.00076   0.00588
 106        4ZZ        -0.00175   0.00162   0.00341  -0.00048   0.00059
 107        4XY        -0.00673   0.00485   0.00559  -0.00344  -0.00230
 108        4XZ        -0.00321   0.00274   0.00170  -0.00107  -0.00003
 109        4YZ         0.00861  -0.00613  -0.00335  -0.00054   0.00036
 110 8   O  1S         -0.10193  -0.17218   0.04969   0.03188   0.02866
 111        2S          0.21889   0.38727  -0.11058  -0.07657  -0.06412
 112        2PX         0.00147   0.02155  -0.00392  -0.08094  -0.11972
 113        2PY        -0.02888   0.00908   0.00968  -0.07950  -0.18140
 114        2PZ         0.06897   0.08833  -0.01278   0.00659   0.03009
 115        3S          0.22813   0.37769  -0.11520  -0.07848  -0.09636
 116        3PX        -0.00516   0.00897  -0.00468  -0.04173  -0.05964
 117        3PY        -0.02221   0.00539   0.00023  -0.03732  -0.08645
 118        3PZ         0.03958   0.04600  -0.00756   0.00166   0.00806
 119        4XX        -0.00266   0.00042   0.00019  -0.00125  -0.00149
 120        4YY         0.00541   0.00675  -0.00196  -0.00189  -0.00007
 121        4ZZ         0.00626   0.00691  -0.00031  -0.00073   0.00230
 122        4XY         0.00837   0.01162  -0.00355  -0.00158  -0.00373
 123        4XZ        -0.00008   0.00488  -0.00113  -0.00715  -0.00933
 124        4YZ        -0.00637   0.00145  -0.00004  -0.00675  -0.01328
 125 9   H  1S          0.05222   0.10780  -0.02294  -0.06384  -0.10508
 126        2S          0.00578   0.00006   0.00988  -0.01789  -0.03871
                          21        22        23        24        25
                           O         O         O         O         O
     Eigenvalues --    -0.63348  -0.62081  -0.61662  -0.55862  -0.51539
   1 1   C  1S         -0.00043  -0.00076   0.00692   0.01101  -0.00519
   2        2S         -0.00255   0.00160  -0.01486  -0.02930   0.01784
   3        2PX         0.20029  -0.02591  -0.15337  -0.06095   0.01950
   4        2PY        -0.14687  -0.27683  -0.17422   0.02929  -0.00689
   5        2PZ         0.14307  -0.22825   0.23644  -0.03517  -0.00354
   6        3S          0.01430   0.00296  -0.01877   0.00254  -0.00130
   7        3PX         0.05355  -0.00589  -0.04858  -0.03223   0.01943
   8        3PY        -0.04656  -0.07521  -0.04630  -0.00679  -0.04298
   9        3PZ         0.04319  -0.06373   0.06533  -0.00768  -0.00323
  10        4XX         0.00192   0.00130   0.00387   0.00839  -0.00319
  11        4YY        -0.00078  -0.01285  -0.00038  -0.00149   0.00458
  12        4ZZ        -0.00103   0.01132  -0.00203  -0.00183  -0.00251
  13        4XY         0.00343   0.01176   0.01035  -0.00556   0.01558
  14        4XZ        -0.00325   0.00973  -0.01404   0.00820   0.00438
  15        4YZ        -0.00514  -0.00227  -0.00958   0.00091   0.00439
  16 2   F  1S         -0.02823   0.04612  -0.02412   0.00344   0.00021
  17        2S          0.05364  -0.08261   0.04305   0.00401   0.00355
  18        2PX         0.01258   0.13920  -0.16842  -0.09035  -0.01151
  19        2PY        -0.13131  -0.05357  -0.14314   0.04963  -0.09763
  20        2PZ        -0.17804   0.30764  -0.09051   0.06636   0.04943
  21        3S          0.11681  -0.20491   0.10815  -0.03767  -0.00637
  22        3PX         0.01245   0.07696  -0.09983  -0.06640  -0.01234
  23        3PY        -0.07746  -0.03629  -0.08580   0.03354  -0.06518
  24        3PZ        -0.10032   0.17176  -0.04674   0.03524   0.03317
  25        4XX        -0.00009   0.00802  -0.00789   0.00066  -0.00021
  26        4YY        -0.00407   0.00406  -0.00585   0.00627   0.00077
  27        4ZZ        -0.01100   0.01863  -0.00243   0.00764   0.00470
  28        4XY        -0.00265  -0.00150  -0.00501  -0.00060  -0.00074
  29        4XZ         0.00174   0.00767  -0.00802  -0.00427   0.00010
  30        4YZ        -0.00742  -0.00364  -0.00661   0.00305  -0.00339
  31 3   F  1S         -0.02597  -0.05044  -0.01309   0.00172  -0.00130
  32        2S          0.04668   0.09015   0.02493   0.00034  -0.01218
  33        2PX         0.03939  -0.15470  -0.12919  -0.08315   0.18183
  34        2PY         0.16719   0.33433   0.01752  -0.03542   0.05482
  35        2PZ         0.13510  -0.00115   0.16136  -0.05329   0.03280
  36        3S          0.11276   0.22437   0.05569  -0.01409   0.04457
  37        3PX         0.02976  -0.08731  -0.07940  -0.05744   0.13052
  38        3PY         0.09413   0.18679   0.00617  -0.01921   0.02555
  39        3PZ         0.07938  -0.00515   0.09818  -0.03594   0.01887
  40        4XX        -0.00037  -0.00885  -0.00467  -0.00074  -0.00011
  41        4YY        -0.01125  -0.01955   0.00261   0.00305  -0.00870
  42        4ZZ        -0.00568  -0.00540  -0.00464   0.00295  -0.00827
  43        4XY        -0.00321   0.00866   0.00614   0.00411  -0.00756
  44        4XZ         0.00186   0.00019   0.00519   0.00073  -0.00139
  45        4YZ        -0.00766   0.00108  -0.00767   0.00294  -0.00075
  46 4   F  1S          0.01851   0.00674   0.05122  -0.00379   0.00025
  47        2S         -0.03480  -0.01217  -0.08911   0.00984   0.00522
  48        2PX         0.18738   0.01495   0.13612  -0.08705  -0.00914
  49        2PY         0.01502  -0.10648   0.26532  -0.02523  -0.05749
  50        2PZ        -0.02049  -0.16983  -0.23328   0.01269  -0.08194
  51        3S         -0.08381  -0.02937  -0.23202   0.00375  -0.01292
  52        3PX         0.11449   0.00751   0.06937  -0.05615  -0.01162
  53        3PY         0.00323  -0.06677   0.15019  -0.01734  -0.03910
  54        3PZ        -0.00665  -0.10259  -0.12991   0.01031  -0.05422
  55        4XX         0.01103   0.00074   0.00805  -0.00090   0.00049
  56        4YY        -0.00069  -0.00723   0.01563   0.00064   0.00000
  57        4ZZ        -0.00039   0.01090   0.01354   0.00091   0.00673
  58        4XY         0.00584  -0.00414   0.00527  -0.00329  -0.00059
  59        4XZ        -0.00607  -0.00522  -0.00409   0.00311  -0.00066
  60        4YZ         0.00266  -0.00094  -0.00805  -0.00027  -0.00007
  61 5   S  1S         -0.00543   0.00059   0.01000   0.03134  -0.00342
  62        2S          0.02073  -0.00218  -0.04151  -0.13061   0.01187
  63        2PX         0.09301  -0.00348  -0.05735  -0.04617  -0.02637
  64        2PY         0.05698   0.01131  -0.02150   0.05335  -0.13823
  65        2PZ        -0.06793   0.01379   0.02584  -0.08544  -0.02945
  66        3S         -0.07181   0.00797   0.12008   0.37941  -0.05079
  67        3PX        -0.23863   0.00886   0.14769   0.12021   0.07015
  68        3PY        -0.14675  -0.03047   0.05483  -0.13996   0.37381
  69        3PZ         0.17614  -0.03680  -0.06645   0.22713   0.08438
  70        4S          0.04384  -0.00565  -0.00663   0.03166   0.00768
  71        4PX        -0.04340   0.00182   0.02471   0.02530   0.03112
  72        4PY        -0.00596  -0.01196   0.00237  -0.01053   0.12020
  73        4PZ         0.01632  -0.00837  -0.00606   0.04502   0.02737
  74        5XX         0.02814   0.00011  -0.01546   0.00023   0.01109
  75        5YY        -0.00271  -0.00489  -0.00201   0.00049   0.01930
  76        5ZZ        -0.02049   0.00432   0.00876  -0.02929  -0.02507
  77        5XY        -0.00096   0.01582   0.01435   0.00126   0.01549
  78        5XZ         0.00142   0.01281  -0.01821   0.00641  -0.00012
  79        5YZ         0.02255  -0.00230  -0.01665   0.01331   0.01023
  80 6   O  1S          0.00119  -0.00893   0.01786   0.09166   0.03984
  81        2S         -0.00247   0.02081  -0.04206  -0.19975  -0.08079
  82        2PX        -0.05430   0.01987   0.01621  -0.05825  -0.03034
  83        2PY        -0.01970  -0.00388  -0.00707  -0.13285   0.12123
  84        2PZ         0.03749   0.00681  -0.04658  -0.22368  -0.18396
  85        3S         -0.01274   0.03453  -0.05394  -0.35266  -0.19520
  86        3PX        -0.02545   0.01236   0.00570  -0.01872  -0.00625
  87        3PY        -0.00734  -0.00159  -0.00419  -0.06415   0.08115
  88        3PZ         0.02189   0.00068  -0.02350  -0.10160  -0.08779
  89        4XX         0.00376  -0.00103  -0.00202   0.00232   0.00213
  90        4YY         0.00154   0.00059  -0.00122   0.00624  -0.00305
  91        4ZZ        -0.00642  -0.00032   0.00516   0.01732   0.01785
  92        4XY         0.00257   0.00003  -0.00049   0.00389  -0.00488
  93        4XZ         0.00292  -0.00144  -0.00062   0.00452   0.00399
  94        4YZ         0.00046  -0.00005   0.00144   0.00974  -0.00859
  95 7   O  1S         -0.01164   0.01184   0.02274   0.06333  -0.06900
  96        2S          0.02586  -0.02799  -0.05268  -0.14134   0.13807
  97        2PX        -0.05324  -0.01736   0.02275  -0.02488   0.13680
  98        2PY        -0.05919   0.01374   0.05738   0.13458  -0.19454
  99        2PZ         0.03288  -0.00093   0.00074   0.16757  -0.10898
 100        3S          0.03560  -0.04239  -0.07252  -0.22404   0.32884
 101        3PX        -0.02675  -0.01135   0.01086  -0.00967   0.05726
 102        3PY        -0.02978   0.00503   0.02789   0.05989  -0.08195
 103        3PZ         0.01715  -0.00099  -0.00149   0.08753  -0.04255
 104        4XX         0.00303   0.00065  -0.00203   0.00009  -0.00926
 105        4YY        -0.00842   0.00106   0.00604   0.00782  -0.01561
 106        4ZZ         0.00129  -0.00074  -0.00057   0.00731  -0.00965
 107        4XY        -0.00258  -0.00129   0.00096  -0.00123   0.00994
 108        4XZ        -0.00325  -0.00016   0.00086  -0.00434   0.00491
 109        4YZ         0.00109   0.00046   0.00112   0.01247  -0.00610
 110 8   O  1S         -0.01473  -0.00145   0.00755   0.02879   0.05247
 111        2S          0.03708   0.00327  -0.01441  -0.07061  -0.11440
 112        2PX         0.11555  -0.00164  -0.04467   0.16709   0.03069
 113        2PY         0.26111  -0.01817  -0.16850   0.15372   0.02668
 114        2PZ        -0.03394  -0.00773   0.03040   0.10302   0.28686
 115        3S          0.03467   0.00604  -0.02284  -0.08370  -0.22012
 116        3PX         0.06597  -0.00086  -0.01660   0.10099   0.02405
 117        3PY         0.14216  -0.00942  -0.09252   0.08240   0.02834
 118        3PZ        -0.01433  -0.00210   0.01450   0.07241   0.17471
 119        4XX         0.00441  -0.00012  -0.00226  -0.00166  -0.00223
 120        4YY         0.00083   0.00058   0.00247  -0.00339  -0.00694
 121        4ZZ        -0.00103  -0.00054   0.00386   0.00789   0.02610
 122        4XY         0.00572   0.00015  -0.00392   0.00098  -0.00362
 123        4XZ         0.00809   0.00031  -0.00270   0.01154   0.00351
 124        4YZ         0.01759  -0.00106  -0.01150   0.00678   0.00159
 125 9   H  1S          0.12705  -0.00817  -0.07183   0.11204   0.06411
 126        2S          0.04973   0.00057  -0.03315   0.04473   0.02175
                          26        27        28        29        30
                           O         O         O         O         O
     Eigenvalues --    -0.49738  -0.49571  -0.49313  -0.47097  -0.46089
   1 1   C  1S         -0.01097  -0.01040  -0.00636   0.00059   0.00042
   2        2S          0.03153   0.02947   0.01949   0.00288   0.00092
   3        2PX         0.02393   0.00864   0.00971  -0.03440  -0.00786
   4        2PY        -0.00052  -0.03514   0.05261   0.00033  -0.03356
   5        2PZ        -0.04345   0.03391   0.02810  -0.02196   0.01641
   6        3S          0.01559   0.01300   0.00258  -0.03292  -0.00930
   7        3PX         0.06961   0.08177   0.04471   0.03252   0.00907
   8        3PY        -0.01658   0.03025  -0.06674   0.05028   0.08099
   9        3PZ         0.05499  -0.03101  -0.03128   0.03675  -0.04412
  10        4XX        -0.01630  -0.02086  -0.01188  -0.01538   0.00276
  11        4YY        -0.01271   0.00672   0.02922   0.00068  -0.00745
  12        4ZZ         0.02288   0.00707  -0.02189   0.00974   0.00478
  13        4XY        -0.00334  -0.00539   0.01109   0.00552   0.02174
  14        4XZ        -0.01335   0.00324   0.00412   0.00675  -0.01217
  15        4YZ         0.01932  -0.03082   0.01159   0.00712  -0.01355
  16 2   F  1S          0.00150  -0.00239  -0.00265  -0.00106   0.00049
  17        2S         -0.00925   0.00014   0.00375  -0.00503  -0.00019
  18        2PX         0.40160   0.07628  -0.07496   0.07072   0.10032
  19        2PY        -0.09206   0.26166  -0.26707  -0.02814   0.20187
  20        2PZ         0.02740  -0.11531  -0.00729   0.10665  -0.11965
  21        3S          0.03017   0.02221   0.00681   0.04046  -0.00899
  22        3PX         0.27660   0.04543  -0.05781   0.04967   0.06568
  23        3PY        -0.05934   0.18292  -0.17900  -0.02351   0.12450
  24        3PZ         0.02658  -0.07045   0.00002   0.08213  -0.07892
  25        4XX         0.00681  -0.00271  -0.00365  -0.00477   0.00344
  26        4YY        -0.00794   0.00372  -0.00183  -0.00557   0.00196
  27        4ZZ        -0.00326  -0.00701   0.00230   0.00241  -0.00439
  28        4XY         0.00160   0.00377  -0.00290   0.00109   0.00521
  29        4XZ         0.01553   0.00181  -0.00279   0.00327   0.00080
  30        4YZ        -0.00216   0.00931  -0.00952  -0.00182   0.00307
  31 3   F  1S         -0.00185  -0.00245   0.00198   0.00036   0.00194
  32        2S          0.00006   0.00099  -0.00805   0.00624  -0.00535
  33        2PX         0.04085   0.03834   0.36802   0.16343   0.30022
  34        2PY        -0.06806   0.10778  -0.07944   0.01612   0.27717
  35        2PZ         0.29545  -0.25727  -0.05674   0.11923  -0.07640
  36        3S          0.02321   0.02054   0.02918  -0.02067  -0.02545
  37        3PX         0.02037   0.01817   0.25422   0.10864   0.19877
  38        3PY        -0.05484   0.06622  -0.06062   0.01430   0.18814
  39        3PZ         0.19999  -0.17942  -0.03928   0.07892  -0.04263
  40        4XX        -0.00329  -0.00382   0.00429   0.00515   0.00775
  41        4YY         0.00456  -0.00612  -0.00039   0.00222  -0.01200
  42        4ZZ        -0.00539   0.00468  -0.00544   0.00136   0.00256
  43        4XY        -0.00206  -0.00036  -0.01445  -0.00483  -0.00564
  44        4XZ         0.00189  -0.00274  -0.00362   0.00009  -0.00481
  45        4YZ        -0.01018   0.00890   0.00293  -0.00363  -0.00167
  46 4   F  1S         -0.00249   0.00186  -0.00165  -0.00172  -0.00255
  47        2S          0.00407  -0.01030   0.00007  -0.01005   0.00444
  48        2PX        -0.00270   0.44300   0.00853   0.09053  -0.27850
  49        2PY         0.13056  -0.01903  -0.26219  -0.01881   0.33171
  50        2PZ         0.20946   0.02117  -0.21013   0.06867  -0.17910
  51        3S          0.00951   0.03190   0.01401   0.04168   0.04075
  52        3PX        -0.00995   0.30562   0.00204   0.06429  -0.18221
  53        3PY         0.09618  -0.00758  -0.17277  -0.01159   0.22531
  54        3PZ         0.13971   0.00922  -0.14635   0.03194  -0.12711
  55        4XX        -0.00295   0.01006  -0.00256  -0.00396  -0.01171
  56        4YY         0.00863  -0.00720  -0.01096  -0.00719   0.00753
  57        4ZZ        -0.00766  -0.00753   0.00920  -0.00540   0.00355
  58        4XY         0.00248   0.01026  -0.00324   0.00243   0.00011
  59        4XZ         0.00259  -0.01075  -0.00369  -0.00114   0.00342
  60        4YZ         0.00175  -0.00000   0.00106   0.00145  -0.01131
  61 5   S  1S         -0.00176  -0.00471  -0.00156  -0.00523   0.00097
  62        2S          0.00598   0.01988   0.00569   0.02180  -0.00490
  63        2PX        -0.07380  -0.07823  -0.05414  -0.05092  -0.00891
  64        2PY         0.01713  -0.00257   0.05663  -0.01153   0.01925
  65        2PZ         0.03782   0.01339   0.03798  -0.10989  -0.00172
  66        3S         -0.02420  -0.05462  -0.01976  -0.06052   0.01012
  67        3PX         0.20206   0.21551   0.14893   0.14417   0.02407
  68        3PY        -0.04935   0.00410  -0.15386   0.03462  -0.05559
  69        3PZ        -0.10520  -0.03462  -0.10273   0.30152   0.00606
  70        4S         -0.01946  -0.04045  -0.00881  -0.01884   0.01105
  71        4PX         0.07485   0.07041   0.05417   0.02079   0.00633
  72        4PY         0.00209  -0.04480   0.03313  -0.07095   0.05665
  73        4PZ        -0.06200   0.03034   0.01825   0.01113  -0.01588
  74        5XX         0.02086   0.01885   0.01021  -0.01113  -0.00246
  75        5YY        -0.00815  -0.00922  -0.00420  -0.04191   0.00286
  76        5ZZ        -0.01575  -0.01084  -0.00992   0.04730  -0.00395
  77        5XY         0.00497   0.00733  -0.01328  -0.02102  -0.01959
  78        5XZ         0.00278  -0.00735  -0.00735   0.01375   0.00832
  79        5YZ         0.00959  -0.00826   0.00065  -0.03661   0.00568
  80 6   O  1S         -0.00753   0.00155  -0.01745   0.04363   0.00068
  81        2S          0.00609   0.00145   0.04590  -0.08831   0.00030
  82        2PX         0.12519   0.10485   0.11430  -0.10376   0.01206
  83        2PY         0.01623  -0.00921  -0.02474  -0.22991  -0.01852
  84        2PZ        -0.01298  -0.03684   0.06448  -0.17849  -0.00274
  85        3S          0.06086  -0.02527   0.04009  -0.19195  -0.00944
  86        3PX         0.06709   0.06531   0.06600  -0.05979   0.00780
  87        3PY         0.00710   0.00543  -0.02144  -0.13666  -0.02169
  88        3PZ        -0.01544  -0.02123   0.03684  -0.07224   0.00357
  89        4XX        -0.00958  -0.00351  -0.00189   0.00488  -0.00020
  90        4YY        -0.00450   0.00149   0.00499   0.00726   0.00211
  91        4ZZ        -0.00025   0.00831   0.00029   0.00939   0.00008
  92        4XY        -0.00260  -0.00218  -0.00115   0.00510  -0.00029
  93        4XZ        -0.00839  -0.00737  -0.00861   0.00681  -0.00061
  94        4YZ         0.00005   0.00075   0.00374   0.01476   0.00249
  95 7   O  1S          0.02440   0.00666   0.03712  -0.02474   0.00818
  96        2S         -0.04723  -0.00593  -0.08667   0.05951  -0.02210
  97        2PX         0.04452   0.09277  -0.00043   0.16541   0.00534
  98        2PY         0.12866   0.05256   0.17109  -0.15086   0.05965
  99        2PZ         0.01041   0.01339   0.06121   0.06140   0.04104
 100        3S         -0.12379  -0.05699  -0.13289   0.07011  -0.01415
 101        3PX         0.02539   0.05844   0.00098   0.10671   0.00490
 102        3PY         0.05564   0.02542   0.08317  -0.07684   0.03029
 103        3PZ         0.00293  -0.00495   0.02644   0.04185   0.03158
 104        4XX        -0.00002  -0.00117  -0.00308  -0.00488  -0.00317
 105        4YY         0.01198   0.01022   0.00896  -0.00553   0.00079
 106        4ZZ         0.00148   0.00312  -0.00118   0.01020  -0.00011
 107        4XY         0.00225   0.00636  -0.00107   0.01210  -0.00025
 108        4XZ         0.00292   0.00310   0.00004   0.00118  -0.00002
 109        4YZ         0.00269   0.00140   0.00412   0.00455   0.00332
 110 8   O  1S          0.02262   0.01017  -0.00299  -0.05527  -0.00057
 111        2S         -0.04225  -0.03227   0.00823   0.11749   0.00467
 112        2PX         0.14478   0.08164   0.07657  -0.11195  -0.03377
 113        2PY        -0.02701  -0.06577  -0.04031  -0.09141   0.05367
 114        2PZ         0.07077   0.05076  -0.05000  -0.26909  -0.03610
 115        3S         -0.12165  -0.01002   0.00119   0.24959  -0.02144
 116        3PX         0.09664   0.04704   0.05058  -0.07673  -0.02816
 117        3PY        -0.01157  -0.04969  -0.02449  -0.05704   0.04371
 118        3PZ         0.03954   0.03410  -0.03821  -0.17074  -0.03101
 119        4XX         0.00344  -0.00380   0.00172  -0.00131   0.00282
 120        4YY         0.00269  -0.00407   0.00363   0.00076   0.00143
 121        4ZZ         0.00883   0.00009  -0.00556  -0.02347  -0.00218
 122        4XY        -0.00260  -0.00350  -0.00192  -0.00137   0.00067
 123        4XZ         0.01112   0.00629   0.00469  -0.00943  -0.00248
 124        4YZ        -0.00142  -0.00419  -0.00189  -0.00658   0.00335
 125 9   H  1S          0.04496   0.00599  -0.00116  -0.12173   0.00280
 126        2S          0.02600   0.01426  -0.00757  -0.08103  -0.00396
                          31        32        33        34        35
                           O         O         O         O         O
     Eigenvalues --    -0.45926  -0.43981  -0.40545  -0.38143  -0.36375
   1 1   C  1S          0.00013  -0.00020  -0.01058   0.02777  -0.03285
   2        2S         -0.00050   0.00080   0.01964  -0.04529   0.06024
   3        2PX        -0.00256   0.00216   0.06094  -0.14737   0.17243
   4        2PY         0.01464  -0.00098  -0.00425   0.01160  -0.01380
   5        2PZ         0.03166  -0.00013   0.00275  -0.00481   0.00693
   6        3S         -0.00146  -0.00019   0.07366  -0.23876   0.25225
   7        3PX         0.00694  -0.00100   0.01283  -0.06805   0.07104
   8        3PY        -0.02159   0.00272  -0.01477  -0.01684   0.04377
   9        3PZ        -0.07070   0.00076   0.08510   0.01524   0.01684
  10        4XX        -0.00192   0.00053   0.00793  -0.01658   0.01887
  11        4YY         0.01473  -0.00062  -0.00303   0.00811  -0.00909
  12        4ZZ        -0.01354   0.00028  -0.00483   0.00853  -0.00855
  13        4XY        -0.00795   0.00029  -0.00195   0.00294   0.00124
  14        4XZ        -0.02148   0.00007   0.00312  -0.00177   0.00127
  15        4YZ        -0.00255  -0.00079  -0.00158  -0.00009  -0.00015
  16 2   F  1S          0.00190   0.00005  -0.00101  -0.00247   0.00255
  17        2S         -0.00620  -0.00012  -0.01325  -0.00493  -0.00330
  18        2PX         0.35563   0.03629  -0.04970   0.07958  -0.09869
  19        2PY        -0.16051   0.40526   0.03021  -0.01337  -0.02859
  20        2PZ        -0.30388  -0.10201  -0.01039   0.02840  -0.01534
  21        3S         -0.02653   0.00003   0.04452   0.04581  -0.02460
  22        3PX         0.23544   0.02434  -0.03201   0.06468  -0.07657
  23        3PY        -0.10834   0.27226   0.02669  -0.00374  -0.02658
  24        3PZ        -0.20747  -0.06849   0.00099   0.03041  -0.01622
  25        4XX         0.00990   0.00121  -0.00653  -0.00487   0.00177
  26        4YY         0.00107   0.00375  -0.00550  -0.00404   0.00019
  27        4ZZ        -0.01388  -0.00486  -0.00686  -0.00270   0.00027
  28        4XY         0.00025   0.00743  -0.00037   0.00033  -0.00017
  29        4XZ         0.00730  -0.00083  -0.00034   0.00171  -0.00160
  30        4YZ        -0.00723   0.01057   0.00186   0.00073  -0.00252
  31 3   F  1S         -0.00155   0.00014   0.00107  -0.00237   0.00668
  32        2S          0.00628  -0.00021   0.00751  -0.00732   0.00257
  33        2PX        -0.21299  -0.02244  -0.00498   0.06408  -0.16082
  34        2PY        -0.14925  -0.09770   0.03866  -0.03726   0.02248
  35        2PZ        -0.22817   0.38914  -0.04517   0.00767   0.00787
  36        3S          0.01535  -0.00179  -0.02931   0.05014  -0.08985
  37        3PX        -0.14202  -0.01542  -0.01001   0.05391  -0.12289
  38        3PY        -0.10452  -0.06554   0.03428  -0.03752   0.03599
  39        3PZ        -0.14605   0.26167  -0.03936  -0.00096   0.00940
  40        4XX        -0.00488  -0.00051   0.00454  -0.00607   0.00822
  41        4YY         0.00785   0.00477   0.00147  -0.00335   0.00523
  42        4ZZ         0.00070  -0.00416   0.00647  -0.00501   0.00695
  43        4XY         0.00564  -0.00109  -0.00043  -0.00102   0.00357
  44        4XZ        -0.00246   0.00661   0.00099  -0.00027   0.00072
  45        4YZ         0.00669  -0.01005   0.00335   0.00081  -0.00076
  46 4   F  1S         -0.00120  -0.00005   0.00280  -0.00278   0.00171
  47        2S          0.00044   0.00054   0.01236   0.00813  -0.00283
  48        2PX        -0.10411  -0.02006  -0.08035   0.15063  -0.07321
  49        2PY        -0.06790  -0.27535   0.00971  -0.01560  -0.02755
  50        2PZ        -0.24563  -0.29058  -0.01068   0.00555  -0.00036
  51        3S          0.02004  -0.00033  -0.06704   0.01805  -0.01748
  52        3PX        -0.06778  -0.01331  -0.06373   0.10961  -0.05785
  53        3PY        -0.03744  -0.18523  -0.00781  -0.00695  -0.02791
  54        3PZ        -0.16195  -0.19521  -0.00261   0.00027  -0.00030
  55        4XX        -0.00525  -0.00046   0.00688   0.00129   0.00116
  56        4YY        -0.00233  -0.00832   0.00611   0.00105  -0.00226
  57        4ZZ         0.00516   0.00932   0.00911   0.00113   0.00113
  58        4XY        -0.00440  -0.00623  -0.00157   0.00220  -0.00104
  59        4XZ        -0.00323  -0.00576   0.00176  -0.00226   0.00070
  60        4YZ        -0.00378  -0.00012  -0.00055   0.00011   0.00129
  61 5   S  1S         -0.00037   0.00014   0.00244   0.00028   0.00298
  62        2S          0.00177  -0.00071  -0.00912  -0.00465  -0.00920
  63        2PX        -0.00742   0.00144   0.02343  -0.03599   0.00770
  64        2PY        -0.01665  -0.00032  -0.01778   0.00039  -0.01547
  65        2PZ        -0.03422   0.00073  -0.00793   0.00138   0.01368
  66        3S         -0.00309   0.00111   0.03106  -0.00081   0.04417
  67        3PX         0.02081  -0.00400  -0.06751   0.11172  -0.03306
  68        3PY         0.04753   0.00045   0.04872  -0.00274   0.04404
  69        3PZ         0.09633  -0.00235   0.02277  -0.00276  -0.03989
  70        4S         -0.01018   0.00492   0.00788   0.00319   0.00370
  71        4PX         0.00170  -0.00125   0.02410  -0.12524   0.12610
  72        4PY        -0.05159   0.00224  -0.00327   0.12790   0.07361
  73        4PZ        -0.06416  -0.00262  -0.12361  -0.09736  -0.02525
  74        5XX        -0.00072   0.00076   0.02617  -0.07671   0.09183
  75        5YY        -0.01275   0.00055  -0.08217   0.03000  -0.05667
  76        5ZZ         0.01222  -0.00113   0.06203   0.02901  -0.02565
  77        5XY         0.00781   0.00017   0.02581  -0.00679  -0.08965
  78        5XZ         0.02209  -0.00131  -0.04073   0.01235  -0.01281
  79        5YZ        -0.00414   0.00184   0.06769   0.12205   0.01456
  80 6   O  1S          0.01317  -0.00012   0.00660   0.00812  -0.00113
  81        2S         -0.03683  -0.00069  -0.02308  -0.02119   0.00565
  82        2PX        -0.01410  -0.00322  -0.17654  -0.14949   0.07452
  83        2PY        -0.05824   0.00949   0.03270   0.23270   0.02913
  84        2PZ        -0.10107   0.00038  -0.07068  -0.23103   0.03727
  85        3S         -0.01515   0.00245   0.02257   0.00453  -0.01697
  86        3PX        -0.00616  -0.00298  -0.13482  -0.09069   0.03632
  87        3PY        -0.03447   0.00834   0.01990   0.15189   0.00580
  88        3PZ        -0.05929  -0.00092  -0.03505  -0.14657   0.03342
  89        4XX        -0.00447  -0.00005   0.00482  -0.00187   0.00254
  90        4YY        -0.00265  -0.00077  -0.00949  -0.01274   0.00104
  91        4ZZ         0.00243  -0.00028  -0.00544   0.00993   0.00165
  92        4XY         0.00108  -0.00047   0.00290  -0.00579  -0.00353
  93        4XZ         0.00164   0.00039   0.00912   0.00930  -0.00252
  94        4YZ         0.00331  -0.00062  -0.00308  -0.01222   0.00040
  95 7   O  1S         -0.00988   0.00007  -0.00404   0.00762  -0.00155
  96        2S          0.02890   0.00108   0.01276  -0.02190   0.00735
  97        2PX         0.02208   0.00019   0.02324  -0.15614   0.47789
  98        2PY        -0.08329   0.00142   0.05204   0.24604   0.21874
  99        2PZ        -0.01400   0.00027  -0.30875  -0.15928  -0.06832
 100        3S          0.00591  -0.00291  -0.00791   0.01591   0.00314
 101        3PX         0.01192   0.00168   0.01581  -0.09459   0.33077
 102        3PY        -0.05083  -0.00071   0.04111   0.15356   0.14626
 103        3PZ        -0.00085   0.00226  -0.20636  -0.10095  -0.04449
 104        4XX         0.00310   0.00029   0.00246  -0.00252  -0.01711
 105        4YY        -0.00222   0.00038   0.01053   0.00865   0.02219
 106        4ZZ         0.00438   0.00056  -0.01049  -0.01463  -0.00305
 107        4XY         0.00195   0.00026  -0.00016  -0.00924   0.02291
 108        4XZ         0.00076  -0.00028   0.00590   0.00297   0.01560
 109        4YZ        -0.00004  -0.00000  -0.01631  -0.00687   0.00154
 110 8   O  1S         -0.00601   0.00095   0.00221  -0.00438   0.00950
 111        2S          0.01420  -0.00065   0.00451   0.01574  -0.01799
 112        2PX        -0.02520   0.01007   0.41480  -0.22235  -0.10859
 113        2PY         0.00705  -0.00036  -0.16122   0.21535   0.20251
 114        2PZ        -0.03812   0.00000  -0.21203  -0.15258  -0.09682
 115        3S          0.02079  -0.00846  -0.06180  -0.04222  -0.08778
 116        3PX        -0.01976   0.00769   0.31262  -0.14642  -0.08668
 117        3PY         0.01141  -0.00297  -0.11298   0.16157   0.15207
 118        3PZ        -0.01914  -0.00369  -0.15897  -0.11070  -0.08873
 119        4XX         0.00094   0.00055   0.00985  -0.00056   0.00549
 120        4YY        -0.00083   0.00056   0.01189   0.00612   0.00514
 121        4ZZ        -0.00111   0.00049  -0.01268  -0.00257  -0.00586
 122        4XY         0.00068   0.00024  -0.00402   0.00215   0.00183
 123        4XZ        -0.00121   0.00096   0.02102  -0.01252  -0.00790
 124        4YZ        -0.00003  -0.00009  -0.00652   0.01145   0.01039
 125 9   H  1S         -0.01339   0.00406   0.01660  -0.01680   0.02299
 126        2S         -0.00439   0.00194   0.01187   0.00498   0.00922
                          36        37        38        39        40
                           O         O         V         V         V
     Eigenvalues --    -0.36262  -0.34168  -0.01872  -0.01263   0.02219
   1 1   C  1S         -0.02438  -0.00875  -0.01965   0.11223   0.03074
   2        2S          0.04207   0.01632   0.05100  -0.25706  -0.06991
   3        2PX         0.12411   0.04271   0.05138  -0.39587  -0.07689
   4        2PY        -0.01217  -0.00397  -0.14510  -0.04644   0.31716
   5        2PZ         0.00398   0.00350   0.20042   0.01359   0.22919
   6        3S          0.19459   0.06460   0.11332  -0.81544  -0.21484
   7        3PX         0.05490   0.01783  -0.00388  -0.34369  -0.04827
   8        3PY        -0.03697  -0.02185  -0.27999  -0.05739   0.39632
   9        3PZ        -0.04625   0.00708   0.32007   0.03134   0.30574
  10        4XX         0.01277   0.00361  -0.00778   0.00912   0.00928
  11        4YY        -0.00586  -0.00282   0.00048   0.01014  -0.02128
  12        4ZZ        -0.00708  -0.00124   0.00430   0.00459   0.01930
  13        4XY        -0.00442   0.00016  -0.02064  -0.01435   0.03670
  14        4XZ        -0.00294   0.00328   0.03197   0.00515   0.02862
  15        4YZ         0.00023  -0.00008   0.00559   0.00261  -0.00373
  16 2   F  1S          0.00592   0.00002  -0.01717  -0.01296  -0.03733
  17        2S          0.00268   0.00564   0.02377   0.02406   0.06610
  18        2PX        -0.14024   0.01035   0.07959   0.10651   0.15947
  19        2PY         0.01971  -0.00858   0.07454   0.03376  -0.05691
  20        2PZ        -0.01055  -0.00649   0.03447   0.05775   0.15137
  21        3S         -0.08092  -0.01182   0.16832   0.10805   0.33052
  22        3PX        -0.10790   0.00304   0.07655   0.10567   0.14712
[...]
 126        2S         -0.00018   0.00084  -0.00001   0.00001   0.00002
                         106       107       108       109       110
 106        4ZZ         0.00170
 107        4XY        -0.00000   0.00242
 108        4XZ         0.00000  -0.00000   0.00091
 109        4YZ        -0.00000  -0.00000   0.00000   0.00206
 110 8   O  1S         -0.00000  -0.00000   0.00000   0.00000   2.07563
 111        2S          0.00000   0.00000  -0.00000  -0.00000  -0.04227
 112        2PX         0.00000   0.00000   0.00000   0.00000   0.00000
 113        2PY         0.00000  -0.00000  -0.00000   0.00000   0.00000
 114        2PZ         0.00000   0.00000   0.00000   0.00000   0.00000
 115        3S          0.00011   0.00000  -0.00000  -0.00006  -0.04023
 116        3PX         0.00000  -0.00000   0.00001   0.00000   0.00000
 117        3PY         0.00019   0.00000  -0.00000  -0.00002   0.00000
 118        3PZ        -0.00000   0.00000   0.00000   0.00001   0.00000
 119        4XX        -0.00000   0.00000  -0.00000   0.00000  -0.00054
 120        4YY        -0.00000   0.00000   0.00000   0.00000  -0.00069
 121        4ZZ        -0.00000   0.00000  -0.00000  -0.00000  -0.00045
 122        4XY         0.00000   0.00000  -0.00000   0.00000   0.00000
 123        4XZ        -0.00000  -0.00000  -0.00000  -0.00000   0.00000
 124        4YZ        -0.00000  -0.00000   0.00000   0.00000  -0.00000
 125 9   H  1S         -0.00000  -0.00000   0.00000  -0.00000  -0.00098
 126        2S         -0.00001  -0.00001   0.00000  -0.00000   0.00057
                         111       112       113       114       115
 111        2S          0.51855
 112        2PX         0.00000   0.71854
 113        2PY         0.00000   0.00000   0.61885
 114        2PZ         0.00000   0.00000  -0.00000   0.68711
 115        3S          0.44494   0.00000   0.00000   0.00000   0.75137
 116        3PX         0.00000   0.25073   0.00000   0.00000   0.00000
 117        3PY         0.00000   0.00000   0.19441  -0.00000   0.00000
 118        3PZ         0.00000   0.00000  -0.00000   0.22908   0.00000
 119        4XX         0.00009   0.00000   0.00000   0.00000  -0.00184
 120        4YY         0.00563   0.00000   0.00000   0.00000   0.00580
 121        4ZZ        -0.00371   0.00000   0.00000   0.00000  -0.01186
 122        4XY        -0.00000   0.00000   0.00000   0.00000  -0.00000
 123        4XZ        -0.00000   0.00000   0.00000   0.00000   0.00000
 124        4YZ         0.00000   0.00000   0.00000   0.00000   0.00000
 125 9   H  1S          0.01727   0.02400   0.03582   0.02119   0.00973
 126        2S         -0.00809   0.00585   0.00888   0.00405  -0.03691
                         116       117       118       119       120
 116        3PX         0.35298
 117        3PY         0.00000   0.25078
 118        3PZ         0.00000  -0.00000   0.30775
 119        4XX         0.00000   0.00000   0.00000   0.00065
 120        4YY         0.00000   0.00000   0.00000   0.00017   0.00093
 121        4ZZ         0.00000   0.00000   0.00000  -0.00014  -0.00018
 122        4XY         0.00000   0.00000   0.00000  -0.00000  -0.00000
 123        4XZ         0.00000   0.00000   0.00000  -0.00000  -0.00000
 124        4YZ         0.00000   0.00000   0.00000  -0.00000  -0.00000
 125 9   H  1S          0.03022   0.04258   0.02992   0.00044   0.00036
 126        2S          0.01151   0.01664   0.00871   0.00050  -0.00006
                         121       122       123       124       125
 121        4ZZ         0.00381
 122        4XY        -0.00000   0.00073
 123        4XZ        -0.00000   0.00000   0.00268
 124        4YZ        -0.00000  -0.00000  -0.00000   0.00234
 125 9   H  1S          0.00321   0.00159   0.00236   0.00285   0.17878
 126        2S          0.00217   0.00006   0.00019   0.00025   0.04287
                         126
 126        2S          0.03356
     Gross orbital populations:
                           1
   1 1   C  1S          1.99217
   2        2S          0.71455
   3        2PX         0.66938
   4        2PY         0.54836
   5        2PZ         0.54911
   6        3S          0.35452
   7        3PX         0.18984
   8        3PY         0.12022
   9        3PZ         0.12517
  10        4XX         0.01549
  11        4YY         0.00856
  12        4ZZ         0.00820
  13        4XY         0.02288
  14        4XZ         0.02370
  15        4YZ         0.03387
  16 2   F  1S          1.99330
  17        2S          0.95577
  18        2PX         1.13895
  19        2PY         1.18252
  20        2PZ         0.97427
  21        3S          0.96895
  22        3PX         0.69102
  23        3PY         0.70462
  24        3PZ         0.56275
  25        4XX         0.01125
  26        4YY         0.00778
  27        4ZZ         0.02910
  28        4XY         0.00091
  29        4XZ         0.00511
  30        4YZ         0.00356
  31 3   F  1S          1.99331
  32        2S          0.95475
  33        2PX         1.15057
  34        2PY         0.96765
  35        2PZ         1.17849
  36        3S          0.97150
  37        3PX         0.70015
  38        3PY         0.55963
  39        3PZ         0.70278
  40        4XX         0.00999
  41        4YY         0.02972
  42        4ZZ         0.00786
  43        4XY         0.00477
  44        4XZ         0.00086
  45        4YZ         0.00382
  46 4   F  1S          1.99330
  47        2S          0.95620
  48        2PX         1.11376
  49        2PY         1.09331
  50        2PZ         1.08866
  51        3S          0.96872
  52        3PX         0.67537
  53        3PY         0.64366
  54        3PZ         0.64057
  55        4XX         0.01339
  56        4YY         0.01615
  57        4ZZ         0.01653
  58        4XY         0.00335
  59        4XZ         0.00349
  60        4YZ         0.00486
  61 5   S  1S          1.99861
  62        2S          1.98808
  63        2PX         1.98873
  64        2PY         1.98855
  65        2PZ         1.98861
  66        3S          1.34917
  67        3PX         0.91345
  68        3PY         0.84141
  69        3PZ         0.83916
  70        4S         -0.05276
  71        4PX         0.17186
  72        4PY         0.14626
  73        4PZ         0.13476
  74        5XX         0.07542
  75        5YY         0.06730
  76        5ZZ         0.06029
  77        5XY         0.08870
  78        5XZ         0.08955
  79        5YZ         0.17008
  80 6   O  1S          1.99266
  81        2S          0.92952
  82        2PX         0.96250
  83        2PY         0.99685
  84        2PZ         0.89305
  85        3S          0.99945
  86        3PX         0.62103
  87        3PY         0.63127
  88        3PZ         0.44263
  89        4XX        -0.00617
  90        4YY        -0.00782
  91        4ZZ         0.01002
  92        4XY         0.00237
  93        4XZ         0.00883
  94        4YZ         0.00808
  95 7   O  1S          1.99268
  96        2S          0.93713
  97        2PX         0.97351
  98        2PY         0.89008
  99        2PZ         0.98129
 100        3S          0.98056
 101        3PX         0.61958
 102        3PY         0.43458
 103        3PZ         0.60087
 104        4XX        -0.00561
 105        4YY         0.01071
 106        4ZZ        -0.00528
 107        4XY         0.00842
 108        4XZ         0.00290
 109        4YZ         0.00832
 110 8   O  1S          1.99245
 111        2S          0.91567
 112        2PX         1.01843
 113        2PY         0.90314
 114        2PZ         0.98330
 115        3S          0.96227
 116        3PX         0.67533
 117        3PY         0.53096
 118        3PZ         0.60512
 119        4XX         0.00038
 120        4YY         0.01528
 121        4ZZ         0.00121
 122        4XY         0.00287
 123        4XZ         0.00701
 124        4YZ         0.01068
 125 9   H  1S          0.44122
 126        2S          0.10043
          Condensed to atoms (all electrons):
               1          2          3          4          5          6
     1  C    4.737088   0.212971   0.204402   0.228723   0.087666  -0.031874
     2  F    0.212971   9.076091  -0.033824  -0.034370   0.008954   0.000224
     3  F    0.204402  -0.033824   9.086590  -0.033822   0.013084  -0.000451
     4  F    0.228723  -0.034370  -0.033822   9.065761   0.004643   0.000037
     5  S    0.087666   0.008954   0.013084   0.004643  13.659645   0.436031
     6  O   -0.031874   0.000224  -0.000451   0.000037   0.436031   8.173822
     7  O   -0.037978  -0.000099   0.000233   0.000130   0.466112  -0.044716
     8  O   -0.026113  -0.000084  -0.000017   0.000222   0.171343  -0.056205
     9  H    0.001127  -0.000001  -0.000340  -0.000005  -0.000258   0.007388
               7          8          9
     1  C   -0.037978  -0.026113   0.001127
     2  F   -0.000099  -0.000084  -0.000001
     3  F    0.000233  -0.000017  -0.000340
     4  F    0.000130   0.000222  -0.000005
     5  S    0.466112   0.171343  -0.000258
     6  O   -0.044716  -0.056205   0.007388
     7  O    8.095748  -0.050490   0.000786
     8  O   -0.050490   8.350556   0.234878
     9  H    0.000786   0.234878   0.298081
 Mulliken charges:
               1
     1  C    0.623987
     2  F   -0.229861
     3  F   -0.235856
     4  F   -0.231319
     5  S    1.152778
     6  O   -0.484256
     7  O   -0.429726
     8  O   -0.624091
     9  H    0.458343
 Sum of Mulliken charges =  -0.00000
 Mulliken charges with hydrogens summed into heavy atoms:
               1
     1  C    0.623987
     2  F   -0.229861
     3  F   -0.235856
     4  F   -0.231319
     5  S    1.152778
     6  O   -0.484256
     7  O   -0.429726
     8  O   -0.165747
 Electronic spatial extent (au):  <R**2>=            896.4821
 Charge=             -0.0000 electrons
 Dipole moment (field-independent basis, Debye):
    X=             -0.2820    Y=              2.2528    Z=             -0.2958  Tot=              2.2896
 Quadrupole moment (field-independent basis, Debye-Ang):
   XX=            -48.0501   YY=            -47.7402   ZZ=            -53.3785
   XY=              5.5127   XZ=             -1.1829   YZ=             -1.4335
 Traceless Quadrupole moment (field-independent basis, Debye-Ang):
   XX=              1.6729   YY=              1.9827   ZZ=             -3.6556
   XY=              5.5127   XZ=             -1.1829   YZ=             -1.4335
 Octapole moment (field-independent basis, Debye-Ang**2):
  XXX=            -11.6491  YYY=             13.3006  ZZZ=             -2.4553  XYY=              0.0040
  XXY=             11.7383  XXZ=             -2.9289  XZZ=            -11.3229  YZZ=             -1.3093
  YYZ=              0.3160  XYZ=             -2.6476
 Hexadecapole moment (field-independent basis, Debye-Ang**3):
 XXXX=           -474.1476 YYYY=           -201.3824 ZZZZ=           -210.1824 XXXY=             23.2695
 XXXZ=             -5.8912 YYYX=             24.5508 YYYZ=             -4.8350 ZZZX=             -3.6868
 ZZZY=              0.2124 XXYY=           -104.8816 XXZZ=           -124.8877 YYZZ=            -70.8676
 XXYZ=             -4.9872 YYXZ=             -1.2666 ZZXY=             -1.4801
 N-N= 5.562834535087D+02 E-N=-3.391200005742D+03  KE= 9.560803613869D+02
 Orbital energies and kinetic energies (alpha):
                                 1                 2
   1         O               -89.174403        120.981468
   2         O               -24.774364         37.083190
   3         O               -24.773638         37.083224
   4         O               -24.772252         37.083189
   5         O               -19.241718         29.027257
   6         O               -19.197560         29.028230
   7         O               -19.194765         29.027909
   8         O               -10.500270         15.900970
   9         O                -8.199523         18.524764
  10         O                -6.165123         17.519071
  11         O                -6.162919         17.513688
  12         O                -6.162675         17.515145
  13         O                -1.340561          3.272673
  14         O                -1.255732          3.836474
  15         O                -1.254499          3.836897
  16         O                -1.188316          2.647180
  17         O                -1.073537          2.819672
  18         O                -1.055256          2.946867
  19         O                -0.795600          2.562714
  20         O                -0.697745          2.901372
  21         O                -0.633483          2.306796
  22         O                -0.620813          2.826208
  23         O                -0.616623          2.712582
  24         O                -0.558623          2.720301
  25         O                -0.515391          2.553423
  26         O                -0.497380          2.933874
  27         O                -0.495711          3.014002
  28         O                -0.493131          3.043388
  29         O                -0.470974          2.582334
  30         O                -0.460894          3.354123
  31         O                -0.459263          3.335482
  32         O                -0.439810          3.545019
  33         O                -0.405452          2.277518
  34         O                -0.381429          2.413496
  35         O                -0.363753          2.430485
  36         O                -0.362621          2.392651
  37         O                -0.341681          2.486545
  38         V                -0.018719          2.773315
  39         V                -0.012632          3.346044
  40         V                 0.022190          2.815703
  41         V                 0.054518          2.069171
  42         V                 0.092367          3.358959
  43         V                 0.139563          3.336481
  44         V                 0.157927          3.978409
  45         V                 0.186180          3.218115
  46         V                 0.286149          2.085960
  47         V                 0.314379          1.974939
  48         V                 0.342634          2.202074
  49         V                 0.387557          2.694171
  50         V                 0.458154          2.557037
  51         V                 0.486061          2.521523
  52         V                 0.511073          2.409939
  53         V                 0.647025          2.429712
  54         V                 0.681165          2.580821
  55         V                 0.726825          2.797059
  56         V                 0.755883          2.659893
  57         V                 0.792144          2.730536
  58         V                 0.810503          2.887661
  59         V                 0.877052          3.095042
  60         V                 0.880302          2.629142
  61         V                 0.927962          3.038804
  62         V                 0.972878          3.375765
  63         V                 0.988755          3.242366
  64         V                 0.997953          3.534587
  65         V                 1.010271          3.550759
  66         V                 1.017086          3.544971
  67         V                 1.076775          3.523490
  68         V                 1.100625          3.673589
  69         V                 1.107647          3.956431
  70         V                 1.114725          3.639892
  71         V                 1.161086          3.451185
  72         V                 1.163335          4.438775
  73         V                 1.181606          3.507054
  74         V                 1.273108          3.299317
  75         V                 1.289349          4.339184
  76         V                 1.319667          3.682148
  77         V                 1.341258          2.927411
  78         V                 1.341420          2.926198
  79         V                 1.362448          3.428727
  80         V                 1.374394          3.611600
  81         V                 1.513003          3.104402
  82         V                 1.547189          2.982993
  83         V                 1.587399          3.367045
  84         V                 1.603393          3.357221
  85         V                 1.663168          3.035828
  86         V                 1.712030          2.955550
  87         V                 1.738733          3.192477
  88         V                 1.751799          2.932587
  89         V                 1.764224          3.135341
  90         V                 1.773364          2.934846
  91         V                 1.788220          2.862759
  92         V                 1.799297          3.052360
  93         V                 1.812508          3.063927
  94         V                 1.821304          3.184875
  95         V                 1.826991          2.977055
  96         V                 1.870879          3.319169
  97         V                 1.915908          3.244115
  98         V                 1.931857          3.541042
  99         V                 1.951893          3.620813
 100         V                 2.011773          3.770291
 101         V                 2.014272          3.401339
 102         V                 2.034667          3.866838
 103         V                 2.085183          3.730534
 104         V                 2.121058          3.574687
 105         V                 2.165880          3.889193
 106         V                 2.187459          4.034371
 107         V                 2.194425          3.771575
 108         V                 2.256554          3.888439
 109         V                 2.333218          3.938605
 110         V                 2.478842          4.640780
 111         V                 2.618298          4.443626
 112         V                 2.658506          4.135993
 113         V                 2.662171          4.123914
 114         V                 2.734680          4.828256
 115         V                 2.791580          5.117297
 116         V                 2.912335          6.133936
 117         V                 3.006510          5.754281
 118         V                 3.007537          5.805172
 119         V                 3.582433         10.094136
 120         V                 3.818755         10.614578
 121         V                 3.867636         11.508741
 122         V                 3.932229         11.808851
 123         V                 4.294108         11.164947
 124         V                 4.302954         10.840407
 125         V                 4.428330         12.010787
 126         V                 5.061962         13.957717
 Total kinetic energy from orbitals= 9.560803613869D+02
 Unable to Open any file for archive entry.
 1\1\GINC-SPARTAN-BM162\SP\RB3LYP\6-31G(d)\C1H1F3O3S1\AKHALILOV\20-Mar-
 2025\0\\# B3LYP/6-31G(d) pop=full density=current\\PFMS Time step 0\\0
 ,1\C,0,-0.927461,-0.007308,-0.250741\F,0,-1.066611,0.180515,-1.595459\
 F,0,-1.550095,1.044653,0.356605\F,0,-1.644754,-1.124269,0.067626\S,0,0
 .851746,-0.145489,0.265888\O,0,0.980867,-0.166886,1.712394\O,0,1.57230
 8,-1.099093,-0.549951\O,0,1.392964,1.330076,-0.156572\H,0,1.726694,1.7
 83207,0.665326\\Version=ES64L-G16RevC.01\State=1-A\HF=-961.9881982\RMS
 D=7.983e-09\Dipole=-0.1804356,0.8661636,0.169198\Quadrupole=0.4550655,
 1.8091282,-2.2641937,3.8037314,1.5838115,1.7263952\PG=C01 [X(C1H1F3O3S
 1)]\\@
 The archive entry for this job was punched.


 SIC AS THE CAWSE OF EWERY THING IS, SIC WILBE THE EFFECT.
 -- PROVERBS AND REASONS OF THE YEAR 1585
           AS REPRINTED IN PAISLEY MAGAZINE 1828.
 Job cpu time:       0 days  0 hours  0 minutes  9.9 seconds.
 Elapsed time:       0 days  0 hours  0 minutes  3.0 seconds.
 File lengths (MBytes):  RWF=     10 Int=      0 D2E=      0 Chk=      2 Scr=      1
 Normal termination of Gaussian 16 at Thu Mar 20 00:08:24 2025.
