 Entering Gaussian System, Link 0=g16
 Input=PFMS_1000K_step0005.gjf
 Output=PFMS_1000K_step0005.log
 Initial command:
 /apps/easybuild-2022/easybuild/software/Compiler/NVHPC/22.11-CUDA-11.7.0/Gaussian/g16c01-CUDA-11.7.0/g16/l1.exe "/tmp/Gau-266490.inp" -scrdir="/tmp/"
 Default is to use a total of   4 processors:
                                4 via shared-memory
                                1 via Linda
 Entering Link 1 = /apps/easybuild-2022/easybuild/software/Compiler/NVHPC/22.11-CUDA-11.7.0/Gaussian/g16c01-CUDA-11.7.0/g16/l1.exe PID=    266491.
  
 Copyright (c) 1988-2019, Gaussian, Inc.  All Rights Reserved.
  
 This is part of the Gaussian(R) 16 program.  It is based on
 the Gaussian(R) 09 system (copyright 2009, Gaussian, Inc.),
 the Gaussian(R) 03 system (copyright 2003, Gaussian, Inc.),
 the Gaussian(R) 98 system (copyright 1998, Gaussian, Inc.),
 the Gaussian(R) 94 system (copyright 1995, Gaussian, Inc.),
 the Gaussian 92(TM) system (copyright 1992, Gaussian, Inc.),
 the Gaussian 90(TM) system (copyright 1990, Gaussian, Inc.),
 the Gaussian 88(TM) system (copyright 1988, Gaussian, Inc.),
 the Gaussian 86(TM) system (copyright 1986, Carnegie Mellon
 University), and the Gaussian 82(TM) system (copyright 1983,
 Carnegie Mellon University). Gaussian is a federally registered
 trademark of Gaussian, Inc.
  
 This software contains proprietary and confidential information,
 including trade secrets, belonging to Gaussian, Inc.
  
 This software is provided under written license and may be
 used, copied, transmitted, or stored only in accord with that
 written license.
  
 The following legend is applicable only to US Government
 contracts under FAR:
  
                    RESTRICTED RIGHTS LEGEND
  
 Use, reproduction and disclosure by the US Government is
 subject to restrictions as set forth in subparagraphs (a)
 and (c) of the Commercial Computer Software - Restricted
 Rights clause in FAR 52.227-19.
  
 Gaussian, Inc.
 340 Quinnipiac St., Bldg. 40, Wallingford CT 06492
  
  
 ---------------------------------------------------------------
 Warning -- This program may not be used in any manner that
 competes with the business of Gaussian, Inc. or will provide
 assistance to any competitor of Gaussian, Inc.  The licensee
 of this program is prohibited from giving any competitor of
 Gaussian, Inc. access to this program.  By using this program,
 the user acknowledges that Gaussian, Inc. is engaged in the
 business of creating and licensing software in the field of
 computational chemistry and represents and warrants to the
 licensee that it is not a competitor of Gaussian, Inc. and that
 it will not use this program in any manner prohibited above.
 ---------------------------------------------------------------
  

 Cite this work as:
 Gaussian 16, Revision C.01,
 M. J. Frisch, G. W. Trucks, H. B. Schlegel, G. E. Scuseria, 
 M. A. Robb, J. R. Cheeseman, G. Scalmani, V. Barone, 
 G. A. Petersson, H. Nakatsuji, X. Li, M. Caricato, A. V. Marenich, 
 J. Bloino, B. G. Janesko, R. Gomperts, B. Mennucci, H. P. Hratchian, 
 J. V. Ortiz, A. F. Izmaylov, J. L. Sonnenberg, D. Williams-Young, 
 F. Ding, F. Lipparini, F. Egidi, J. Goings, B. Peng, A. Petrone, 
 T. Henderson, D. Ranasinghe, V. G. Zakrzewski, J. Gao, N. Rega, 
 G. Zheng, W. Liang, M. Hada, M. Ehara, K. Toyota, R. Fukuda, 
 J. Hasegawa, M. Ishida, T. Nakajima, Y. Honda, O. Kitao, H. Nakai, 
 T. Vreven, K. Throssell, J. A. Montgomery, Jr., J. E. Peralta, 
 F. Ogliaro, M. J. Bearpark, J. J. Heyd, E. N. Brothers, K. N. Kudin, 
 V. N. Staroverov, T. A. Keith, R. Kobayashi, J. Normand, 
 K. Raghavachari, A. P. Rendell, J. C. Burant, S. S. Iyengar, 
 J. Tomasi, M. Cossi, J. M. Millam, M. Klene, C. Adamo, R. Cammi, 
 J. W. Ochterski, R. L. Martin, K. Morokuma, O. Farkas, 
 J. B. Foresman, and D. J. Fox, Gaussian, Inc., Wallingford CT, 2019.
 
 ******************************************
 Gaussian 16:  ES64L-G16RevC.01  3-Jul-2019
                20-Mar-2025 
 ******************************************
 %chk=PFMS_1000K_step0005.chk
 %mem=8GB
 %nprocshared=4
 Will use up to    4 processors via shared memory.
 -----------------------------------------
 # B3LYP/6-31G(d) pop=full density=current
 -----------------------------------------
 1/30=1,38=1,172=1/1;
 2/12=2,17=6,18=5,40=1/2;
 3/5=1,6=6,7=1,11=2,25=1,30=1,74=-5/1,2,3;
 4//1;
 5/5=2,38=5/2;
 6/7=3,22=-1,28=1/1;
 99/5=1,9=1/99;
 ----------------
 PFMS Time step 5
 ----------------
 Symbolic Z-matrix:
 Charge =  0 Multiplicity = 1
 C                    -0.92353  -0.00237  -0.24553 
 F                    -1.06553   0.17786  -1.59995 
 F                    -1.55559   1.04587   0.35641 
 F                    -1.65009  -1.12816   0.06664 
 S                     0.85194  -0.15073   0.26601 
 O                     0.98719  -0.16854   1.71477 
 O                     1.5661   -1.0906   -0.54743 
 O                     1.39978   1.33374  -0.16184 
 H                     1.74764   1.82406   0.71231 
 
                          Input orientation:                          
 ---------------------------------------------------------------------
 Center     Atomic      Atomic             Coordinates (Angstroms)
 Number     Number       Type             X           Y           Z
 ---------------------------------------------------------------------
      1          6           0       -0.923530   -0.002367   -0.245528
      2          9           0       -1.065534    0.177862   -1.599953
      3          9           0       -1.555591    1.045872    0.356411
      4          9           0       -1.650091   -1.128157    0.066639
      5         16           0        0.851939   -0.150729    0.266009
      6          8           0        0.987194   -0.168535    1.714769
      7          8           0        1.566099   -1.090598   -0.547432
      8          8           0        1.399780    1.333744   -0.161838
      9          1           0        1.747636    1.824061    0.712309
 ---------------------------------------------------------------------
                    Distance matrix (angstroms):
                    1          2          3          4          5
     1  C    0.000000
     2  F    1.373723   0.000000
     3  F    1.364052   2.195668   0.000000
     4  F    1.375770   2.196570   2.195290   0.000000
     5  S    1.853637   2.695643   2.690024   2.693560   0.000000
     6  O    2.742488   3.914213   3.128207   3.254609   1.455169
     7  O    2.733797   3.105203   3.889265   3.274503   1.433550
     8  O    2.681411   3.079287   3.014245   3.926178   1.639159
     9  H    3.374673   3.996305   3.412265   4.547200   2.213877
                    6          7          8          9
     6  O    0.000000
     7  O    2.510555   0.000000
     8  O    2.439000   2.460443   0.000000
     9  H    2.356616   3.180431   1.060918   0.000000
 Stoichiometry    CHF3O3S
 Framework group  C1[X(CHF3O3S)]
 Deg. of freedom    21
 Full point group                 C1      NOp   1
 Largest Abelian subgroup         C1      NOp   1
 Largest concise Abelian subgroup C1      NOp   1
                         Standard orientation:                         
 ---------------------------------------------------------------------
 Center     Atomic      Atomic             Coordinates (Angstroms)
 Number     Number       Type             X           Y           Z
 ---------------------------------------------------------------------
      1          6           0       -0.998324    0.013580    0.008600
      2          9           0       -1.497571   -0.228271   -1.248132
      3          9           0       -1.418468    1.262214    0.362195
      4          9           0       -1.639832   -0.867015    0.848697
      5         16           0        0.845261   -0.164019    0.083596
      6          8           0        1.367447    0.261407    1.373500
      7          8           0        1.289705   -1.386536   -0.518887
      8          8           0        1.292015    1.038067   -0.937308
      9          1           0        1.875270    1.736965   -0.392422
 ---------------------------------------------------------------------
 Rotational constants (GHZ):           2.6169770           1.4529293           1.4363895
 Standard basis: 6-31G(d) (6D, 7F)
 There are   126 symmetry adapted cartesian basis functions of A   symmetry.
 There are   126 symmetry adapted basis functions of A   symmetry.
   126 basis functions,   252 primitive gaussians,   126 cartesian basis functions
    37 alpha electrons       37 beta electrons
       nuclear repulsion energy       555.2186942631 Hartrees.
 NAtoms=    9 NActive=    9 NUniq=    9 SFac= 1.00D+00 NAtFMM=   60 NAOKFM=F Big=F
 Integral buffers will be    131072 words long.
 Raffenetti 2 integral format.
 Two-electron integral symmetry is turned on.
 One-electron integrals computed using PRISM.
 NBasis=   126 RedAO= T EigKep=  2.59D-03  NBF=   126
 NBsUse=   126 1.00D-06 EigRej= -1.00D+00 NBFU=   126
 ExpMin= 1.17D-01 ExpMax= 2.19D+04 ExpMxC= 3.30D+03 IAcc=3 IRadAn=         5 AccDes= 0.00D+00
 Harris functional with IExCor=  402 and IRadAn=       5 diagonalized for initial guess.
 HarFok:  IExCor=  402 AccDes= 0.00D+00 IRadAn=         5 IDoV= 1 UseB2=F ITyADJ=14
 ICtDFT=  3500011 ScaDFX=  1.000000  1.000000  1.000000  1.000000
 FoFCou: FMM=F IPFlag=           0 FMFlag=      100000 FMFlg1=           0
         NFxFlg=           0 DoJE=T BraDBF=F KetDBF=T FulRan=T
         wScrn=  0.000000 ICntrl=       500 IOpCl=  0 I1Cent=   200000004 NGrid=           0
         NMat0=    1 NMatS0=      1 NMatT0=    0 NMatD0=    1 NMtDS0=    0 NMtDT0=    0
 Petite list used in FoFCou.
 Keep R1 ints in memory in canonical form, NReq=35818892.
 Requested convergence on RMS density matrix=1.00D-08 within 128 cycles.
 Requested convergence on MAX density matrix=1.00D-06.
 Requested convergence on             energy=1.00D-06.
 No special actions if energy rises.
 Integral accuracy reduced to 1.0D-05 until final iterations.
 Initial convergence to 1.0D-05 achieved.  Increase integral accuracy.
 SCF Done:  E(RB3LYP) =  -961.981244448     A.U. after   14 cycles
            NFock= 14  Conv=0.74D-08     -V/T= 2.0063

 **********************************************************************

            Population analysis using the SCF Density.

 **********************************************************************

 Orbital symmetries:
       Occupied  (A) (A) (A) (A) (A) (A) (A) (A) (A) (A) (A) (A)
                 (A) (A) (A) (A) (A) (A) (A) (A) (A) (A) (A) (A)
                 (A) (A) (A) (A) (A) (A) (A) (A) (A) (A) (A) (A)
                 (A)
       Virtual   (A) (A) (A) (A) (A) (A) (A) (A) (A) (A) (A) (A)
                 (A) (A) (A) (A) (A) (A) (A) (A) (A) (A) (A) (A)
                 (A) (A) (A) (A) (A) (A) (A) (A) (A) (A) (A) (A)
                 (A) (A) (A) (A) (A) (A) (A) (A) (A) (A) (A) (A)
                 (A) (A) (A) (A) (A) (A) (A) (A) (A) (A) (A) (A)
                 (A) (A) (A) (A) (A) (A) (A) (A) (A) (A) (A) (A)
                 (A) (A) (A) (A) (A) (A) (A) (A) (A) (A) (A) (A)
                 (A) (A) (A) (A) (A)
 The electronic state is 1-A.
 Alpha  occ. eigenvalues --  -89.17400 -24.77504 -24.77119 -24.76981 -19.24261
 Alpha  occ. eigenvalues --  -19.19969 -19.19441 -10.50016  -8.19930  -6.16478
 Alpha  occ. eigenvalues --   -6.16270  -6.16256  -1.33628  -1.25416  -1.24929
 Alpha  occ. eigenvalues --   -1.18671  -1.06691  -1.05347  -0.79458  -0.69213
 Alpha  occ. eigenvalues --   -0.62705  -0.61844  -0.61126  -0.55571  -0.51340
 Alpha  occ. eigenvalues --   -0.49511  -0.49329  -0.49180  -0.46967  -0.45929
 Alpha  occ. eigenvalues --   -0.45665  -0.43805  -0.40336  -0.38087  -0.36681
 Alpha  occ. eigenvalues --   -0.36166  -0.34223
 Alpha virt. eigenvalues --   -0.02726  -0.01566   0.01984   0.04013   0.09252
 Alpha virt. eigenvalues --    0.13439   0.15447   0.18735   0.28528   0.31378
 Alpha virt. eigenvalues --    0.34215   0.38930   0.45857   0.48787   0.51272
 Alpha virt. eigenvalues --    0.64672   0.67949   0.71027   0.75472   0.78842
 Alpha virt. eigenvalues --    0.80129   0.86857   0.87908   0.92903   0.97006
 Alpha virt. eigenvalues --    0.98757   0.99904   1.01118   1.01883   1.07860
 Alpha virt. eigenvalues --    1.10118   1.10717   1.11724   1.16366   1.17123
 Alpha virt. eigenvalues --    1.18290   1.27329   1.28991   1.32080   1.34240
 Alpha virt. eigenvalues --    1.34343   1.36228   1.37579   1.51542   1.54881
 Alpha virt. eigenvalues --    1.58691   1.60200   1.67040   1.71401   1.73922
 Alpha virt. eigenvalues --    1.75187   1.76679   1.77471   1.78942   1.79851
 Alpha virt. eigenvalues --    1.81484   1.82097   1.82853   1.86966   1.91428
 Alpha virt. eigenvalues --    1.93087   1.95138   2.00706   2.01203   2.02912
 Alpha virt. eigenvalues --    2.08289   2.11952   2.15793   2.17634   2.19114
 Alpha virt. eigenvalues --    2.23652   2.29503   2.45106   2.62101   2.64909
 Alpha virt. eigenvalues --    2.65009   2.73527   2.79662   2.89887   3.00636
 Alpha virt. eigenvalues --    3.01127   3.57228   3.82393   3.86667   3.93353
 Alpha virt. eigenvalues --    4.29058   4.30155   4.40284   5.06625
     Molecular Orbital Coefficients:
                           1         2         3         4         5
                           O         O         O         O         O
     Eigenvalues --   -89.17400 -24.77504 -24.77119 -24.76981 -19.24261
   1 1   C  1S         -0.00003  -0.00003  -0.00002  -0.00003  -0.00002
   2        2S         -0.00007   0.00002   0.00001  -0.00000  -0.00015
   3        2PX         0.00005  -0.00030  -0.00038  -0.00032   0.00003
   4        2PY        -0.00000   0.00057  -0.00038  -0.00009   0.00000
   5        2PZ         0.00000   0.00015   0.00037  -0.00055   0.00002
   6        3S          0.00084   0.00040   0.00015   0.00031   0.00106
   7        3PX         0.00039   0.00053   0.00044   0.00048   0.00044
   8        3PY        -0.00005  -0.00005   0.00011  -0.00007  -0.00071
   9        3PZ         0.00000   0.00007  -0.00012   0.00008   0.00004
  10        4XX        -0.00004   0.00006   0.00015   0.00010   0.00005
  11        4YY        -0.00001   0.00045   0.00026   0.00006  -0.00003
  12        4ZZ        -0.00000   0.00006   0.00024   0.00047   0.00000
  13        4XY         0.00001  -0.00019   0.00020   0.00005   0.00003
  14        4XZ        -0.00000  -0.00006  -0.00019   0.00023  -0.00001
  15        4YZ        -0.00000   0.00013  -0.00022   0.00009  -0.00003
  16 2   F  1S          0.00002   0.00014   0.00055   0.99301  -0.00003
  17        2S          0.00011   0.00004   0.00008   0.01971  -0.00018
  18        2PX         0.00001   0.00000  -0.00000   0.00029  -0.00004
  19        2PY        -0.00000   0.00001  -0.00000   0.00013  -0.00001
  20        2PZ        -0.00000   0.00001   0.00002   0.00068   0.00000
  21        3S         -0.00041   0.00004  -0.00007   0.01477   0.00049
  22        3PX        -0.00014  -0.00002  -0.00000  -0.00016   0.00012
  23        3PY         0.00001  -0.00012   0.00005  -0.00009   0.00012
  24        3PZ        -0.00006  -0.00008  -0.00014  -0.00048  -0.00005
  25        4XX         0.00006   0.00002   0.00003  -0.00799  -0.00009
  26        4YY         0.00005  -0.00008   0.00001  -0.00798  -0.00016
  27        4ZZ         0.00007  -0.00006  -0.00011  -0.00836  -0.00016
  28        4XY        -0.00001   0.00001  -0.00003  -0.00004   0.00001
  29        4XZ        -0.00003  -0.00002  -0.00000  -0.00020  -0.00001
  30        4YZ         0.00001  -0.00009   0.00006  -0.00008   0.00003
  31 3   F  1S          0.00002   0.99301  -0.00020  -0.00015  -0.00005
  32        2S          0.00010   0.01973   0.00007   0.00004  -0.00028
  33        2PX         0.00001   0.00025  -0.00000  -0.00000  -0.00001
  34        2PY         0.00000  -0.00069  -0.00002  -0.00001   0.00001
  35        2PZ         0.00000  -0.00019   0.00000  -0.00001   0.00000
  36        3S         -0.00038   0.01471  -0.00008   0.00002   0.00098
  37        3PX        -0.00013  -0.00014  -0.00000  -0.00001   0.00010
  38        3PY         0.00006   0.00051   0.00015   0.00008  -0.00010
  39        3PZ         0.00001   0.00014  -0.00003   0.00012  -0.00008
  40        4XX         0.00006  -0.00797   0.00004   0.00003  -0.00016
  41        4YY         0.00006  -0.00836  -0.00011  -0.00004  -0.00019
  42        4ZZ         0.00005  -0.00799   0.00002  -0.00008  -0.00019
  43        4XY         0.00003   0.00017  -0.00001   0.00002  -0.00001
  44        4XZ         0.00001   0.00005   0.00003  -0.00002  -0.00001
  45        4YZ         0.00001  -0.00013   0.00005  -0.00009   0.00001
  46 4   F  1S          0.00002   0.00020   0.99301  -0.00054   0.00005
  47        2S          0.00012   0.00008   0.01970   0.00007   0.00029
  48        2PX         0.00001   0.00001   0.00037   0.00000   0.00003
  49        2PY        -0.00001   0.00002   0.00047   0.00000   0.00000
  50        2PZ         0.00000  -0.00000  -0.00045  -0.00002  -0.00002
  51        3S         -0.00043  -0.00010   0.01485  -0.00013  -0.00104
  52        3PX        -0.00015  -0.00005  -0.00022  -0.00004  -0.00021
  53        3PY        -0.00002  -0.00017  -0.00031  -0.00002  -0.00006
  54        3PZ         0.00003   0.00001   0.00030   0.00016   0.00017
  55        4XX         0.00006   0.00004  -0.00805   0.00005   0.00019
  56        4YY         0.00007  -0.00012  -0.00815   0.00005   0.00021
  57        4ZZ         0.00007   0.00005  -0.00814  -0.00011   0.00017
  58        4XY        -0.00002  -0.00002  -0.00017  -0.00003  -0.00002
  59        4XZ         0.00002   0.00003   0.00016   0.00001   0.00003
  60        4YZ        -0.00002   0.00002   0.00021   0.00004   0.00001
  61 5   S  1S          0.99612   0.00000   0.00000   0.00000   0.00001
  62        2S          0.01487   0.00006   0.00003   0.00005   0.00003
  63        2PX        -0.00001   0.00001   0.00001   0.00001  -0.00000
  64        2PY         0.00002   0.00000  -0.00000  -0.00000  -0.00006
  65        2PZ        -0.00002   0.00000   0.00000  -0.00000   0.00005
  66        3S         -0.02414   0.00025   0.00012   0.00021   0.00009
  67        3PX         0.00009  -0.00009  -0.00011  -0.00009  -0.00011
  68        3PY        -0.00006   0.00001   0.00001   0.00003   0.00017
  69        3PZ         0.00003  -0.00003  -0.00000   0.00001  -0.00017
  70        4S          0.00152  -0.00155  -0.00113  -0.00139  -0.00329
  71        4PX        -0.00002   0.00049   0.00051   0.00053   0.00039
  72        4PY        -0.00005  -0.00086   0.00018   0.00003  -0.00047
  73        4PZ         0.00006  -0.00020  -0.00018   0.00072   0.00140
  74        5XX         0.00850   0.00003   0.00001   0.00003   0.00012
  75        5YY         0.00860   0.00004   0.00003   0.00003   0.00023
  76        5ZZ         0.00862   0.00002   0.00002   0.00004   0.00019
  77        5XY        -0.00001  -0.00001  -0.00000  -0.00001   0.00006
  78        5XZ         0.00001   0.00000  -0.00000   0.00001  -0.00003
  79        5YZ         0.00004  -0.00000  -0.00003  -0.00000  -0.00021
  80 6   O  1S          0.00001  -0.00004  -0.00003   0.00001  -0.00005
  81        2S         -0.00000  -0.00020  -0.00012   0.00005  -0.00004
  82        2PX         0.00003   0.00002   0.00003   0.00001  -0.00001
  83        2PY         0.00004  -0.00002   0.00001  -0.00001  -0.00004
  84        2PZ         0.00012   0.00002   0.00000   0.00000   0.00001
  85        3S          0.00042   0.00104   0.00060  -0.00027   0.00034
  86        3PX        -0.00006  -0.00021  -0.00018  -0.00005  -0.00005
  87        3PY        -0.00009   0.00010  -0.00010   0.00005   0.00011
  88        3PZ        -0.00028  -0.00023  -0.00009  -0.00001  -0.00022
  89        4XX         0.00001  -0.00012  -0.00008   0.00004  -0.00001
  90        4YY         0.00003  -0.00014  -0.00008   0.00004  -0.00005
  91        4ZZ        -0.00016  -0.00012  -0.00009   0.00005  -0.00007
  92        4XY        -0.00003  -0.00001   0.00001  -0.00000  -0.00002
  93        4XZ        -0.00011   0.00003   0.00002   0.00000   0.00002
  94        4YZ        -0.00008  -0.00002   0.00001  -0.00001   0.00005
  95 7   O  1S          0.00001   0.00002  -0.00003  -0.00004  -0.00004
  96        2S         -0.00002   0.00006  -0.00013  -0.00017  -0.00022
  97        2PX         0.00003   0.00001   0.00003   0.00002   0.00002
  98        2PY        -0.00013  -0.00001  -0.00000  -0.00002   0.00000
  99        2PZ        -0.00006   0.00001  -0.00002   0.00002   0.00003
 100        3S          0.00045  -0.00031   0.00061   0.00089   0.00145
 101        3PX        -0.00005  -0.00004  -0.00018  -0.00018  -0.00023
 102        3PY         0.00028   0.00004   0.00008   0.00021   0.00032
 103        3PZ         0.00013  -0.00004   0.00013  -0.00007  -0.00008
 104        4XX         0.00002   0.00004  -0.00008  -0.00010  -0.00011
 105        4YY        -0.00014   0.00005  -0.00009  -0.00009  -0.00019
 106        4ZZ         0.00001   0.00004  -0.00008  -0.00012  -0.00016
 107        4XY         0.00009  -0.00000  -0.00002  -0.00002  -0.00004
 108        4XZ         0.00004   0.00000  -0.00002  -0.00000   0.00003
 109        4YZ        -0.00011  -0.00000   0.00001  -0.00002   0.00004
 110 8   O  1S         -0.00001  -0.00003  -0.00000  -0.00003   0.99277
 111        2S         -0.00003  -0.00014  -0.00000  -0.00016   0.02585
 112        2PX        -0.00002   0.00001   0.00001   0.00001   0.00023
 113        2PY        -0.00001   0.00002  -0.00000   0.00002   0.00006
 114        2PZ        -0.00001  -0.00001   0.00000  -0.00000   0.00091
 115        3S          0.00063   0.00073   0.00004   0.00081   0.01185
 116        3PX         0.00002  -0.00015  -0.00006  -0.00014  -0.00034
 117        3PY        -0.00016  -0.00013  -0.00000  -0.00021  -0.00052
 118        3PZ         0.00026   0.00020   0.00002   0.00005   0.00010
 119        4XX        -0.00005  -0.00007  -0.00000  -0.00009  -0.00802
 120        4YY        -0.00010  -0.00009  -0.00000  -0.00008  -0.00804
 121        4ZZ        -0.00009  -0.00004   0.00000  -0.00011  -0.00809
 122        4XY        -0.00002   0.00001   0.00001   0.00002  -0.00000
 123        4XZ         0.00005  -0.00002  -0.00000  -0.00001  -0.00002
 124        4YZ         0.00010  -0.00000   0.00000   0.00001   0.00000
 125 9   H  1S         -0.00009  -0.00003   0.00000  -0.00001   0.00039
 126        2S         -0.00011   0.00014  -0.00001   0.00002  -0.00088
                           6         7         8         9        10
                           O         O         O         O         O
     Eigenvalues --   -19.19969 -19.19441 -10.50016  -8.19930  -6.16478
   1 1   C  1S         -0.00001  -0.00002   0.99336   0.00002   0.00001
   2        2S         -0.00007  -0.00011   0.04670   0.00075  -0.00016
   3        2PX         0.00002   0.00001  -0.00073  -0.00008  -0.00003
   4        2PY         0.00004  -0.00002   0.00012  -0.00003  -0.00011
   5        2PZ         0.00002  -0.00004  -0.00000   0.00001   0.00009
   6        3S          0.00037   0.00060  -0.01233  -0.00226  -0.00005
   7        3PX         0.00022   0.00037  -0.00304  -0.00191   0.00009
   8        3PY        -0.00044   0.00046  -0.00008   0.00051  -0.00128
   9        3PZ        -0.00054   0.00046   0.00003   0.00002   0.00139
  10        4XX         0.00004   0.00004  -0.00831  -0.00065   0.00013
  11        4YY        -0.00002   0.00001  -0.00773  -0.00015   0.00009
  12        4ZZ         0.00002  -0.00003  -0.00775  -0.00017   0.00004
  13        4XY         0.00001  -0.00002   0.00006   0.00004  -0.00029
  14        4XZ         0.00002  -0.00001  -0.00004  -0.00003   0.00026
  15        4YZ         0.00000   0.00001   0.00000  -0.00000  -0.00014
  16 2   F  1S         -0.00000   0.00001  -0.00009  -0.00015  -0.00004
  17        2S         -0.00000   0.00004  -0.00019  -0.00088  -0.00023
  18        2PX        -0.00003   0.00004   0.00000  -0.00020   0.00001
  19        2PY        -0.00001   0.00000  -0.00000   0.00003  -0.00012
  20        2PZ         0.00002  -0.00001   0.00003  -0.00002   0.00003
  21        3S         -0.00014  -0.00002   0.00118   0.00284   0.00097
  22        3PX         0.00006  -0.00012  -0.00003   0.00106   0.00008
  23        3PY         0.00002  -0.00003  -0.00009  -0.00010   0.00055
  24        3PZ        -0.00012   0.00007  -0.00066   0.00031  -0.00004
  25        4XX         0.00002   0.00003  -0.00012  -0.00046  -0.00009
  26        4YY        -0.00003   0.00006   0.00002  -0.00066  -0.00009
  27        4ZZ        -0.00005   0.00007  -0.00080  -0.00062  -0.00018
  28        4XY        -0.00001   0.00000  -0.00003   0.00002   0.00011
  29        4XZ        -0.00001  -0.00001  -0.00022   0.00020  -0.00003
  30        4YZ         0.00002  -0.00002  -0.00019  -0.00003   0.00005
  31 3   F  1S          0.00001  -0.00001  -0.00009  -0.00014  -0.00003
  32        2S          0.00004  -0.00003  -0.00021  -0.00079  -0.00021
  33        2PX         0.00004  -0.00003   0.00001  -0.00021   0.00000
  34        2PY         0.00000  -0.00001  -0.00002   0.00002  -0.00005
  35        2PZ        -0.00001   0.00001   0.00000  -0.00001   0.00013
  36        3S         -0.00003  -0.00006   0.00126   0.00246   0.00085
  37        3PX        -0.00012   0.00008  -0.00001   0.00105   0.00007
  38        3PY        -0.00007   0.00011   0.00066  -0.00026   0.00013
  39        3PZ         0.00003  -0.00001   0.00015  -0.00001  -0.00059
  40        4XX         0.00004   0.00000  -0.00011  -0.00042  -0.00009
  41        4YY         0.00008  -0.00007  -0.00080  -0.00058  -0.00020
  42        4ZZ         0.00006  -0.00006  -0.00001  -0.00062  -0.00008
  43        4XY         0.00001   0.00001   0.00018  -0.00020   0.00004
  44        4XZ        -0.00000   0.00002   0.00004  -0.00005  -0.00012
  45        4YZ        -0.00002   0.00002  -0.00028  -0.00000   0.00005
  46 4   F  1S         -0.00003  -0.00003  -0.00008  -0.00013   0.00019
  47        2S         -0.00016  -0.00015  -0.00015  -0.00074   0.00109
  48        2PX        -0.00003  -0.00002  -0.00001  -0.00018   0.00012
  49        2PY        -0.00001   0.00001   0.00002   0.00002  -0.00001
  50        2PZ        -0.00001   0.00001  -0.00003   0.00000   0.00002
  51        3S          0.00051   0.00045   0.00095   0.00243  -0.00386
  52        3PX         0.00009   0.00006  -0.00010   0.00100  -0.00086
  53        3PY         0.00008  -0.00005  -0.00052   0.00003  -0.00012
  54        3PZ         0.00005  -0.00008   0.00052  -0.00015   0.00010
  55        4XX        -0.00010  -0.00009  -0.00014  -0.00033   0.00054
  56        4YY        -0.00011  -0.00016  -0.00038  -0.00057   0.00078
  57        4ZZ        -0.00017  -0.00010  -0.00034  -0.00053   0.00078
  58        4XY        -0.00000  -0.00000  -0.00024   0.00011  -0.00004
  59        4XZ        -0.00001   0.00001   0.00023  -0.00012   0.00004
  60        4YZ        -0.00001  -0.00001   0.00048   0.00002  -0.00008
  61 5   S  1S          0.00001   0.00002  -0.00001  -0.27991   0.00082
  62        2S         -0.00006  -0.00004  -0.00019   1.02298  -0.00321
  63        2PX         0.00002   0.00002  -0.00001   0.00025   0.22418
  64        2PY        -0.00003  -0.00000   0.00000   0.00199   0.69025
  65        2PZ        -0.00001   0.00001   0.00000  -0.00202  -0.67489
  66        3S          0.00080   0.00081  -0.00066   0.07230  -0.00039
  67        3PX        -0.00004  -0.00003  -0.00009   0.00032   0.00673
  68        3PY        -0.00013   0.00010  -0.00004   0.00018   0.02172
  69        3PZ        -0.00009   0.00019   0.00002  -0.00019  -0.02114
  70        4S         -0.00304  -0.00342   0.00762  -0.00794   0.00190
  71        4PX        -0.00042  -0.00049  -0.00300   0.00164  -0.00183
  72        4PY         0.00191  -0.00136   0.00119  -0.00094  -0.00345
  73        4PZ         0.00151  -0.00194  -0.00056   0.00018   0.00313
  74        5XX        -0.00019  -0.00014  -0.00011  -0.01517  -0.00056
  75        5YY        -0.00019  -0.00018  -0.00013  -0.01456   0.00054
  76        5ZZ        -0.00021  -0.00011  -0.00010  -0.01464  -0.00009
  77        5XY         0.00001   0.00003   0.00003  -0.00005   0.00076
  78        5XZ        -0.00002   0.00002  -0.00001   0.00010  -0.00074
  79        5YZ         0.00000   0.00002   0.00007   0.00034  -0.00190
  80 6   O  1S         -0.00052   0.99274   0.00007  -0.00010   0.00016
  81        2S          0.00006   0.02570   0.00031   0.00046  -0.00013
  82        2PX        -0.00004  -0.00038  -0.00004   0.00000  -0.00002
  83        2PY         0.00005  -0.00029   0.00003  -0.00016   0.00002
  84        2PZ        -0.00001  -0.00089  -0.00001  -0.00030   0.00015
  85        3S         -0.00033   0.01270  -0.00183  -0.00346   0.00115
  86        3PX         0.00018  -0.00028   0.00055   0.00052  -0.00060
  87        3PY        -0.00033  -0.00006  -0.00011   0.00117  -0.00111
  88        3PZ        -0.00008  -0.00060   0.00044   0.00276  -0.00119
  89        4XX         0.00006  -0.00811   0.00021   0.00028   0.00011
  90        4YY         0.00004  -0.00812   0.00013   0.00022   0.00030
  91        4ZZ         0.00008  -0.00807   0.00014   0.00022  -0.00036
  92        4XY         0.00003  -0.00000  -0.00001   0.00002   0.00028
  93        4XZ        -0.00001   0.00003  -0.00006   0.00007   0.00014
  94        4YZ         0.00001   0.00000   0.00005   0.00001   0.00046
  95 7   O  1S          0.99273   0.00054   0.00005  -0.00009   0.00016
  96        2S          0.02570   0.00006   0.00025   0.00064   0.00001
  97        2PX        -0.00036  -0.00004  -0.00003  -0.00002  -0.00004
  98        2PY         0.00089   0.00002   0.00001   0.00035  -0.00010
  99        2PZ         0.00046  -0.00005  -0.00003   0.00023  -0.00004
 100        3S          0.01277  -0.00020  -0.00146  -0.00441   0.00040
 101        3PX        -0.00024   0.00018   0.00048   0.00050  -0.00032
 102        3PY         0.00059   0.00009  -0.00044  -0.00280   0.00060
 103        3PZ         0.00016   0.00033   0.00004  -0.00159   0.00118
 104        4XX        -0.00813   0.00004   0.00018   0.00036   0.00016
 105        4YY        -0.00806   0.00006   0.00008   0.00037  -0.00039
 106        4ZZ        -0.00813   0.00002   0.00010   0.00032   0.00049
 107        4XY        -0.00003   0.00001   0.00005  -0.00008  -0.00007
 108        4XZ        -0.00001  -0.00003   0.00002  -0.00005  -0.00024
 109        4YZ         0.00003   0.00002   0.00005   0.00006   0.00035
 110 8   O  1S         -0.00005  -0.00001   0.00008   0.00003   0.00004
 111        2S         -0.00012  -0.00015   0.00035   0.00042   0.00123
 112        2PX        -0.00002  -0.00001   0.00000   0.00017   0.00007
 113        2PY         0.00004  -0.00002  -0.00003   0.00009   0.00007
 114        2PZ         0.00004  -0.00005   0.00000   0.00004   0.00007
 115        3S          0.00079   0.00098  -0.00217  -0.00232  -0.00530
 116        3PX         0.00003  -0.00001   0.00035  -0.00024   0.00100
 117        3PY        -0.00037  -0.00001   0.00051   0.00134   0.00313
 118        3PZ        -0.00013   0.00043  -0.00037  -0.00169  -0.00328
 119        4XX        -0.00008  -0.00009   0.00030   0.00034   0.00072
 120        4YY        -0.00012  -0.00011   0.00014  -0.00012  -0.00026
 121        4ZZ        -0.00011  -0.00015   0.00012   0.00006   0.00016
 122        4XY         0.00003  -0.00001  -0.00002  -0.00022  -0.00059
 123        4XZ         0.00003  -0.00003   0.00001   0.00003   0.00029
 124        4YZ        -0.00001   0.00000  -0.00003   0.00034   0.00087
 125 9   H  1S          0.00002  -0.00007   0.00008   0.00031   0.00046
 126        2S         -0.00007   0.00011  -0.00031   0.00084   0.00069
                          11        12        13        14        15
                           O         O         O         O         O
     Eigenvalues --    -6.16270  -6.16256  -1.33628  -1.25416  -1.24929
   1 1   C  1S         -0.00008  -0.00008  -0.09747   0.00353  -0.00065
   2        2S         -0.00137  -0.00151   0.19813  -0.00701   0.00129
   3        2PX         0.00002   0.00006  -0.05895   0.01344   0.00841
   4        2PY        -0.00006   0.00004   0.01250   0.13837   0.03519
   5        2PZ        -0.00005   0.00004   0.00006   0.03739  -0.13683
   6        3S          0.00462   0.00492   0.01585  -0.00249   0.00061
   7        3PX         0.00267   0.00309   0.01735  -0.00171   0.00009
   8        3PY        -0.00150   0.00155  -0.00227  -0.00490   0.00039
   9        3PZ        -0.00206   0.00159   0.00056  -0.00258   0.00304
  10        4XX         0.00087   0.00107  -0.00946  -0.00205  -0.00191
  11        4YY         0.00003   0.00019   0.00121   0.01724  -0.00983
  12        4ZZ         0.00017   0.00003  -0.00074  -0.01473   0.01177
  13        4XY        -0.00029   0.00008   0.00016  -0.01528  -0.00583
  14        4XZ        -0.00017   0.00019  -0.00065  -0.00267   0.01716
  15        4YZ         0.00003   0.00002   0.00076   0.01220   0.01486
  16 2   F  1S          0.00029   0.00008  -0.11426   0.09234  -0.16651
  17        2S          0.00172   0.00048   0.25061  -0.20765   0.37535
  18        2PX         0.00022   0.00021   0.02093  -0.01442   0.02829
  19        2PY        -0.00005   0.00007   0.01280   0.00456   0.01598
  20        2PZ         0.00007   0.00002   0.06206  -0.03454   0.05450
  21        3S         -0.00613  -0.00128   0.24559  -0.19575   0.35143
  22        3PX        -0.00152  -0.00102   0.01123  -0.00763   0.01568
  23        3PY         0.00018  -0.00035   0.00890   0.00414   0.00893
  24        3PZ        -0.00086  -0.00014   0.04117  -0.01872   0.02786
  25        4XX         0.00091   0.00022   0.00353  -0.00432   0.00831
  26        4YY         0.00112   0.00040   0.00174  -0.00265   0.00620
  27        4ZZ         0.00114   0.00035   0.01599  -0.00911   0.01483
  28        4XY        -0.00000  -0.00009   0.00120  -0.00008   0.00118
  29        4XZ        -0.00028  -0.00018   0.00613  -0.00295   0.00529
  30        4YZ         0.00007  -0.00006   0.00345   0.00020   0.00271
  31 3   F  1S          0.00005   0.00030  -0.12724  -0.18156   0.00726
  32        2S          0.00030   0.00177   0.28001   0.40951  -0.01624
  33        2PX         0.00017   0.00024   0.01948   0.02735  -0.00026
  34        2PY        -0.00002  -0.00008  -0.06769  -0.06092   0.00606
  35        2PZ        -0.00009   0.00004  -0.01938  -0.01739  -0.01154
  36        3S         -0.00072  -0.00625   0.27204   0.38284  -0.01587
  37        3PX        -0.00080  -0.00159   0.00981   0.01523  -0.00000
  38        3PY         0.00012   0.00096  -0.04327  -0.03028   0.00379
  39        3PZ         0.00046  -0.00005  -0.01261  -0.00850  -0.00777
  40        4XX         0.00015   0.00095   0.00363   0.00858  -0.00023
  41        4YY         0.00021   0.00113   0.01719   0.01620  -0.00145
  42        4ZZ         0.00024   0.00117   0.00292   0.00704   0.00057
  43        4XY         0.00015   0.00031  -0.00540  -0.00494   0.00021
  44        4XZ         0.00010   0.00005  -0.00151  -0.00136  -0.00038
  45        4YZ        -0.00010   0.00006   0.00510   0.00317   0.00137
  46 4   F  1S          0.00013   0.00016  -0.11514   0.10570   0.15802
  47        2S          0.00076   0.00091   0.25236  -0.23799  -0.35645
  48        2PX         0.00019   0.00022   0.02814  -0.02149  -0.03246
  49        2PY        -0.00008   0.00009   0.04425  -0.01802  -0.04049
  50        2PZ        -0.00011   0.00007  -0.04141   0.03159   0.02958
  51        3S         -0.00247  -0.00296   0.24799  -0.22324  -0.33312
  52        3PX        -0.00106  -0.00125   0.01628  -0.01168  -0.01786
  53        3PY         0.00031  -0.00060   0.02981  -0.00800  -0.02145
  54        3PZ         0.00066  -0.00022  -0.02765   0.01794   0.01411
  55        4XX         0.00035   0.00041   0.00491  -0.00590  -0.00911
  56        4YY         0.00065   0.00058   0.00852  -0.00526  -0.01047
  57        4ZZ         0.00047   0.00073   0.00766  -0.00749  -0.00852
  58        4XY        -0.00004  -0.00022   0.00568  -0.00242  -0.00443
  59        4XZ         0.00021   0.00007  -0.00539   0.00319   0.00377
  60        4YZ        -0.00001  -0.00001  -0.00815   0.00344   0.00465
  61 5   S  1S         -0.00010  -0.00008   0.00469  -0.00028   0.00024
  62        2S          0.00048   0.00043  -0.02226   0.00107  -0.00117
  63        2PX         0.65693   0.70740   0.00776  -0.00056  -0.00021
  64        2PY         0.39845  -0.58870  -0.00082  -0.00363  -0.00057
  65        2PZ         0.62567  -0.36728   0.00038  -0.00124   0.00347
  66        3S         -0.00024  -0.00017   0.03437  -0.00306   0.00184
  67        3PX         0.02067   0.02215  -0.01821   0.00115   0.00026
  68        3PY         0.01339  -0.01957   0.00198   0.00766   0.00111
  69        3PZ         0.02080  -0.01221  -0.00096   0.00287  -0.00749
  70        4S          0.00069   0.00210   0.01294   0.00287  -0.00015
  71        4PX        -0.00327  -0.00340  -0.00517   0.00198   0.00134
  72        4PY        -0.00100   0.00165   0.00247   0.01681   0.00131
  73        4PZ        -0.00140   0.00024  -0.00041   0.00683  -0.01383
  74        5XX        -0.00054  -0.00083   0.00857  -0.00085  -0.00052
  75        5YY        -0.00004   0.00169  -0.00191   0.00069   0.00035
  76        5ZZ         0.00170   0.00028  -0.00209   0.00023   0.00027
  77        5XY         0.00087  -0.00059  -0.00150  -0.00298  -0.00104
  78        5XZ         0.00085  -0.00071   0.00066  -0.00066   0.00320
  79        5YZ         0.00023   0.00080   0.00061  -0.00026  -0.00020
  80 6   O  1S         -0.00027   0.00015  -0.00404  -0.00048   0.00065
  81        2S          0.00115  -0.00002   0.00984   0.00310  -0.00333
  82        2PX        -0.00021  -0.00002  -0.00282  -0.00045   0.00074
  83        2PY        -0.00011  -0.00002  -0.00117   0.00057   0.00058
  84        2PZ        -0.00043   0.00008  -0.00452  -0.00081   0.00053
  85        3S         -0.00726   0.00094   0.00311  -0.00841   0.00743
  86        3PX         0.00177  -0.00084   0.00075  -0.00015  -0.00021
  87        3PY         0.00120   0.00036  -0.00067  -0.00175  -0.00148
  88        3PZ         0.00474  -0.00072  -0.00079   0.00196  -0.00034
  89        4XX         0.00067   0.00037   0.00032   0.00077  -0.00069
  90        4YY         0.00059  -0.00004   0.00036   0.00077  -0.00045
  91        4ZZ         0.00027  -0.00012   0.00134   0.00069  -0.00105
  92        4XY         0.00010   0.00002   0.00017  -0.00004   0.00002
  93        4XZ         0.00014   0.00038   0.00046   0.00008  -0.00003
  94        4YZ         0.00005  -0.00042   0.00049   0.00034  -0.00010
  95 7   O  1S          0.00022  -0.00030  -0.00426   0.00165  -0.00087
  96        2S         -0.00027   0.00131   0.01014  -0.00608   0.00255
  97        2PX         0.00003  -0.00023  -0.00270   0.00123  -0.00040
  98        2PY        -0.00023   0.00055   0.00464  -0.00156   0.00118
  99        2PZ        -0.00004   0.00024   0.00206  -0.00085  -0.00042
 100        3S          0.00244  -0.00807   0.00452   0.00844  -0.00187
 101        3PX        -0.00110   0.00148   0.00074  -0.00011  -0.00060
 102        3PY         0.00173  -0.00475   0.00073   0.00019  -0.00138
 103        3PZ         0.00014  -0.00203   0.00076   0.00071   0.00215
 104        4XX         0.00022   0.00074   0.00022  -0.00088   0.00030
 105        4YY        -0.00014   0.00048   0.00116  -0.00133   0.00009
 106        4ZZ        -0.00022   0.00064   0.00044  -0.00073   0.00037
 107        4XY        -0.00034  -0.00026  -0.00041   0.00011  -0.00013
 108        4XZ        -0.00008  -0.00015  -0.00020  -0.00002   0.00004
 109        4YZ        -0.00039   0.00002   0.00063  -0.00042   0.00029
 110 8   O  1S          0.00015   0.00007  -0.00404  -0.00112  -0.00184
 111        2S          0.00068   0.00029   0.00918   0.00259   0.00463
 112        2PX         0.00001  -0.00012  -0.00170  -0.00030  -0.00045
 113        2PY         0.00013  -0.00008  -0.00220   0.00015  -0.00097
 114        2PZ         0.00011  -0.00001   0.00300   0.00111   0.00072
 115        3S         -0.00296  -0.00130   0.00458  -0.00050  -0.00091
 116        3PX        -0.00039   0.00021   0.00027  -0.00088  -0.00187
 117        3PY        -0.00064   0.00092  -0.00005   0.00048   0.00156
 118        3PZ        -0.00137   0.00029   0.00083  -0.00156   0.00076
 119        4XX         0.00065   0.00038   0.00013   0.00013   0.00038
 120        4YY         0.00079  -0.00036   0.00056   0.00008  -0.00014
 121        4ZZ        -0.00011   0.00061   0.00046  -0.00046   0.00022
 122        4XY         0.00027   0.00025   0.00020   0.00001   0.00027
 123        4XZ        -0.00017  -0.00039  -0.00003  -0.00025  -0.00005
 124        4YZ         0.00024   0.00013  -0.00055   0.00007  -0.00020
 125 9   H  1S          0.00041  -0.00011   0.00135   0.00095   0.00073
 126        2S          0.00140  -0.00025  -0.00059  -0.00273  -0.00026
                          16        17        18        19        20
                           O         O         O         O         O
     Eigenvalues --    -1.18671  -1.06691  -1.05347  -0.79458  -0.69213
   1 1   C  1S         -0.00640  -0.00042  -0.00087  -0.12883   0.08801
   2        2S          0.00143   0.00072   0.00101   0.29772  -0.21657
   3        2PX         0.03516   0.00061   0.00201   0.15490   0.20229
   4        2PY        -0.00348  -0.00286  -0.00031  -0.01093  -0.01284
   5        2PZ         0.00193   0.00000   0.00338   0.00507  -0.00732
   6        3S          0.05354   0.00037   0.00375   0.22190  -0.12483
   7        3PX         0.02250   0.00038   0.00197   0.08956  -0.00037
   8        3PY        -0.00041  -0.00541   0.00009  -0.00716   0.00091
   9        3PZ         0.00081   0.00001   0.00522   0.00127  -0.00507
  10        4XX         0.00704   0.00028   0.00058   0.00621   0.01126
  11        4YY        -0.00250   0.00056  -0.00081  -0.01119   0.00172
  12        4ZZ        -0.00272  -0.00062   0.00048  -0.01145   0.00283
  13        4XY        -0.00070  -0.00154  -0.00039  -0.00162   0.00027
  14        4XZ         0.00013   0.00010   0.00149   0.00044  -0.00012
  15        4YZ        -0.00018   0.00074   0.00055  -0.00020  -0.00029
  16 2   F  1S          0.01224   0.00165  -0.00335   0.04866  -0.04241
  17        2S         -0.02769  -0.00415   0.01072  -0.10740   0.09096
  18        2PX         0.00234   0.00060  -0.00129   0.08086  -0.00691
  19        2PY        -0.00118  -0.00098  -0.00016   0.01522  -0.04270
  20        2PZ        -0.00392   0.00019   0.00014   0.09600  -0.20788
  21        3S         -0.03006  -0.00327   0.00304  -0.14991   0.13914
  22        3PX         0.00053   0.00076  -0.00390   0.04266   0.00153
  23        3PY        -0.00115  -0.00144   0.00011   0.00943  -0.02565
  24        3PZ        -0.00440  -0.00007   0.00055   0.05635  -0.12453
  25        4XX         0.00015   0.00000   0.00082   0.00314   0.00341
  26        4YY        -0.00111  -0.00018   0.00184  -0.00239   0.00078
  27        4ZZ        -0.00173  -0.00039   0.00202   0.00730  -0.01583
  28        4XY        -0.00014  -0.00068  -0.00009   0.00119  -0.00013
  29        4XZ        -0.00018   0.00015  -0.00020   0.00725  -0.00162
  30        4YZ        -0.00021   0.00000   0.00007   0.00200  -0.00424
  31 3   F  1S          0.01145  -0.00400   0.00141   0.04949  -0.04493
  32        2S         -0.02544   0.01252  -0.00357  -0.10913   0.09564
  33        2PX         0.00285  -0.00156   0.00062   0.07827   0.00181
  34        2PY         0.00350  -0.00039  -0.00060  -0.10356   0.22185
  35        2PZ         0.00125   0.00031   0.00112  -0.02713   0.06087
  36        3S         -0.02977   0.00394  -0.00330  -0.15285   0.15077
  37        3PX         0.00092  -0.00446   0.00068   0.04071   0.00679
  38        3PY         0.00449  -0.00064  -0.00012  -0.06075   0.13119
  39        3PZ         0.00142  -0.00016   0.00147  -0.01606   0.03632
  40        4XX         0.00050   0.00080  -0.00009   0.00246   0.00314
  41        4YY        -0.00145   0.00224  -0.00036   0.00780  -0.01599
  42        4ZZ        -0.00091   0.00206  -0.00030  -0.00192   0.00003
  43        4XY         0.00004   0.00024  -0.00026  -0.00704   0.00051
  44        4XZ         0.00005   0.00019   0.00068  -0.00185  -0.00011
  45        4YZ        -0.00023   0.00011  -0.00003   0.00323  -0.00573
  46 4   F  1S          0.01028   0.00263   0.00288   0.04738  -0.04754
  47        2S         -0.02169  -0.00692  -0.00752  -0.10533   0.10162
  48        2PX         0.00214   0.00088   0.00125   0.08937  -0.04858
  49        2PY        -0.00271  -0.00035   0.00041   0.06171  -0.16655
  50        2PZ         0.00245  -0.00035   0.00044  -0.06059   0.15264
  51        3S         -0.02866  -0.00541  -0.00610  -0.14376   0.15879
  52        3PX        -0.00113   0.00139   0.00157   0.04783  -0.02373
  53        3PY        -0.00319  -0.00104   0.00014   0.03751  -0.09930
  54        3PZ         0.00277  -0.00033   0.00101  -0.03636   0.09125
  55        4XX         0.00066  -0.00026  -0.00016   0.00409   0.00147
  56        4YY        -0.00048  -0.00063  -0.00083   0.00156  -0.00820
  57        4ZZ        -0.00040  -0.00076  -0.00068   0.00120  -0.00686
  58        4XY        -0.00035  -0.00028   0.00032   0.00552  -0.00381
  59        4XZ         0.00026  -0.00036   0.00029  -0.00541   0.00342
  60        4YZ         0.00036  -0.00000  -0.00004  -0.00505   0.01044
  61 5   S  1S          0.05254   0.00608   0.00654   0.02939   0.03005
  62        2S         -0.23493  -0.02746  -0.02957  -0.12711  -0.13337
  63        2PX        -0.03294  -0.00287  -0.00854   0.11117   0.03143
  64        2PY         0.00834   0.11453  -0.02133  -0.02747  -0.03722
  65        2PZ        -0.00098   0.03240  -0.11623   0.01888   0.03347
  66        3S          0.48893   0.06107   0.06490   0.31253   0.32260
  67        3PX         0.06228   0.00646   0.01864  -0.27878  -0.07823
  68        3PY        -0.01448  -0.25383   0.04936   0.06911   0.09409
  69        3PZ        -0.00039  -0.07329   0.25875  -0.04710  -0.08473
  70        4S         -0.06017   0.00624  -0.00214   0.01756   0.13655
  71        4PX        -0.00043  -0.00029  -0.00231   0.01261  -0.04251
  72        4PY        -0.00989   0.02946  -0.00462  -0.00109   0.01696
  73        4PZ         0.00563   0.00658  -0.02430   0.00386  -0.00680
  74        5XX        -0.03268  -0.00674  -0.00226   0.04322  -0.00540
  75        5YY         0.00435   0.02388  -0.04349  -0.02392  -0.01097
  76        5ZZ         0.00172  -0.02713   0.03689  -0.02282  -0.00450
  77        5XY        -0.00266  -0.03666   0.01025  -0.00309   0.00395
  78        5XZ         0.00321  -0.01364   0.04052  -0.00078  -0.00413
  79        5YZ         0.02005   0.04719   0.03257  -0.01924  -0.02065
  80 6   O  1S         -0.09582   0.04878  -0.15905   0.05181   0.04530
  81        2S          0.20460  -0.10607   0.35387  -0.11832  -0.09800
  82        2PX        -0.03309   0.01407  -0.04912  -0.03410  -0.03011
  83        2PY        -0.02681  -0.00329  -0.03739   0.00419  -0.00129
  84        2PZ        -0.08969   0.03674  -0.10545  -0.00086  -0.04140
  85        3S          0.19602  -0.10101   0.32123  -0.13427  -0.15292
  86        3PX        -0.01454   0.00340  -0.01585  -0.01833  -0.00816
  87        3PY        -0.00737  -0.00644  -0.00893  -0.00090  -0.00303
  88        3PZ        -0.03752   0.00945  -0.03012  -0.00224  -0.01313
  89        4XX        -0.00319   0.00137  -0.00220   0.00329   0.00337
  90        4YY        -0.00425   0.00294  -0.00444   0.00010   0.00133
  91        4ZZ         0.01154  -0.00141   0.00837   0.00076   0.00583
  92        4XY         0.00309  -0.00006   0.00257   0.00045  -0.00004
  93        4XZ         0.00789  -0.00249   0.00747   0.00365   0.00286
  94        4YZ         0.00641   0.00078   0.00467  -0.00030   0.00065
  95 7   O  1S         -0.10383  -0.14961   0.05566   0.05433   0.05111
  96        2S          0.22552   0.33391  -0.12463  -0.12650  -0.11443
  97        2PX        -0.03215  -0.04297   0.01577  -0.03387  -0.02704
  98        2PY         0.09389   0.09871  -0.04074   0.00375   0.04991
  99        2PZ         0.04511   0.05288  -0.00557  -0.00703  -0.00057
 100        3S          0.20037   0.29211  -0.10680  -0.13405  -0.16217
 101        3PX        -0.01297  -0.01339   0.00412  -0.01783  -0.00683
 102        3PY         0.03451   0.02261  -0.00752   0.00567   0.01817
 103        3PZ         0.01439   0.01318   0.00313  -0.00074  -0.00104
 104        4XX        -0.00292  -0.00237   0.00039   0.00229   0.00221
 105        4YY         0.01168   0.00647  -0.00283   0.00058   0.00562
 106        4ZZ        -0.00122  -0.00235   0.00234  -0.00068   0.00051
 107        4XY        -0.00702  -0.00625   0.00284  -0.00371  -0.00280
 108        4XZ        -0.00368  -0.00317   0.00032  -0.00135  -0.00042
 109        4YZ         0.00981   0.00666  -0.00033  -0.00043   0.00078
 110 8   O  1S         -0.08840   0.13700   0.12732   0.03438   0.03213
 111        2S          0.18758  -0.30626  -0.28389  -0.08124  -0.07048
 112        2PX        -0.00278  -0.01069  -0.00807  -0.07102  -0.10435
 113        2PY        -0.03287  -0.00053   0.01197  -0.06528  -0.15441
 114        2PZ         0.05804  -0.07329  -0.05070   0.00531   0.02868
 115        3S          0.20438  -0.30713  -0.29177  -0.08841  -0.11235
 116        3PX        -0.00597  -0.00387  -0.00662  -0.03784  -0.05295
 117        3PY        -0.02319   0.00032   0.00085  -0.03172  -0.07421
 118        3PZ         0.03599  -0.04155  -0.03036  -0.00028   0.00592
 119        4XX        -0.00327   0.00078   0.00094  -0.00052  -0.00033
 120        4YY         0.00458  -0.00484  -0.00435  -0.00138   0.00098
 121        4ZZ         0.00456  -0.00531  -0.00288  -0.00081   0.00218
 122        4XY         0.00751  -0.00904  -0.00852  -0.00119  -0.00279
 123        4XZ        -0.00063  -0.00331  -0.00284  -0.00641  -0.00837
 124        4YZ        -0.00657   0.00004   0.00005  -0.00574  -0.01145
 125 9   H  1S          0.03783  -0.07631  -0.06212  -0.05409  -0.08840
 126        2S          0.00622  -0.00709   0.00597  -0.01717  -0.03717
                          21        22        23        24        25
                           O         O         O         O         O
     Eigenvalues --    -0.62705  -0.61844  -0.61126  -0.55571  -0.51340
   1 1   C  1S         -0.00356  -0.00184   0.00818   0.01033  -0.00504
   2        2S          0.00555   0.00424  -0.01793  -0.02764   0.01697
   3        2PX         0.15630  -0.04615  -0.17457  -0.05573   0.01700
   4        2PY        -0.20469  -0.24960  -0.15554   0.03232  -0.00903
   5        2PZ         0.14476  -0.25317   0.20683  -0.03670  -0.00533
   6        3S          0.01710   0.00550  -0.02012   0.00167   0.00030
   7        3PX         0.04341  -0.01143  -0.05607  -0.02963   0.01929
   8        3PY        -0.06093  -0.06663  -0.04274  -0.00290  -0.03843
   9        3PZ         0.04580  -0.07229   0.05904  -0.00968  -0.00377
  10        4XX         0.00170   0.00144   0.00454   0.00741  -0.00301
  11        4YY        -0.00215  -0.01301  -0.00034  -0.00114   0.00410
  12        4ZZ        -0.00022   0.01151  -0.00204  -0.00164  -0.00219
  13        4XY         0.00636   0.01068   0.00969  -0.00653   0.01554
  14        4XZ        -0.00392   0.01039  -0.01286   0.00851   0.00580
  15        4YZ        -0.00664  -0.00277  -0.00825   0.00061   0.00398
  16 2   F  1S         -0.02370   0.04948  -0.01992   0.00360   0.00047
  17        2S          0.04426  -0.08880   0.03552   0.00356   0.00319
  18        2PX         0.00247   0.13965  -0.16782  -0.08266  -0.01913
  19        2PY        -0.14753  -0.03893  -0.11952   0.05300  -0.09111
  20        2PZ        -0.14395   0.32665  -0.06755   0.06622   0.05455
  21        3S          0.10028  -0.21886   0.08940  -0.03774  -0.00731
  22        3PX         0.00580   0.07688  -0.10066  -0.06160  -0.01794
  23        3PY        -0.08818  -0.02709  -0.07185   0.03589  -0.06139
  24        3PZ        -0.08068   0.18306  -0.03461   0.03555   0.03659
  25        4XX        -0.00079   0.00829  -0.00754   0.00077  -0.00054
  26        4YY        -0.00425   0.00490  -0.00478   0.00622   0.00109
  27        4ZZ        -0.00865   0.01986  -0.00121   0.00761   0.00504
  28        4XY        -0.00349  -0.00123  -0.00433  -0.00032  -0.00071
  29        4XZ         0.00128   0.00754  -0.00821  -0.00389  -0.00020
  30        4YZ        -0.00818  -0.00277  -0.00546   0.00312  -0.00328
  31 3   F  1S         -0.03083  -0.04636  -0.00956   0.00194  -0.00149
  32        2S          0.05485   0.08248   0.01874   0.00016  -0.01101
  33        2PX         0.00208  -0.16254  -0.13965  -0.07980   0.18104
  34        2PY         0.18871   0.31423  -0.01126  -0.03437   0.06288
  35        2PZ         0.16356  -0.01357   0.14548  -0.06258   0.02943
  36        3S          0.13603   0.20734   0.04000  -0.01583   0.04244
  37        3PX         0.00788  -0.09299  -0.08710  -0.05535   0.12976
  38        3PY         0.10548   0.17586  -0.01037  -0.01812   0.03184
  39        3PZ         0.09615  -0.01287   0.08894  -0.04187   0.01618
  40        4XX        -0.00222  -0.00889  -0.00465  -0.00067   0.00024
  41        4YY        -0.01165  -0.01825   0.00459   0.00287  -0.00881
  42        4ZZ        -0.00739  -0.00444  -0.00409   0.00336  -0.00779
  43        4XY        -0.00129   0.00914   0.00655   0.00392  -0.00727
  44        4XZ         0.00266   0.00016   0.00521   0.00064  -0.00158
  45        4YZ        -0.00864   0.00177  -0.00645   0.00323  -0.00059
  46 4   F  1S          0.02846   0.00462   0.04656  -0.00432   0.00034
  47        2S         -0.05295  -0.00836  -0.07987   0.00951   0.00435
  48        2PX         0.20655  -0.00637   0.10687  -0.07938  -0.00563
  49        2PY         0.05421  -0.09847   0.26171  -0.03216  -0.05511
  50        2PZ        -0.07746  -0.16465  -0.21150   0.01752  -0.08585
  51        3S         -0.12593  -0.01923  -0.21268   0.00933  -0.01150
  52        3PX         0.12422  -0.00536   0.05178  -0.05038  -0.00876
  53        3PY         0.02510  -0.06111   0.14971  -0.02151  -0.03803
  54        3PZ        -0.04030  -0.10022  -0.11864   0.01265  -0.05771
  55        4XX         0.01194  -0.00048   0.00673  -0.00108   0.00041
  56        4YY         0.00129  -0.00675   0.01601  -0.00029  -0.00051
  57        4ZZ         0.00321   0.01030   0.01281   0.00008   0.00658
  58        4XY         0.00633  -0.00451   0.00446  -0.00318  -0.00053
  59        4XZ        -0.00694  -0.00461  -0.00297   0.00274  -0.00083
  60        4YZ         0.00067  -0.00192  -0.00791  -0.00005  -0.00044
  61 5   S  1S         -0.00744   0.00118   0.01330   0.02944  -0.00240
  62        2S          0.02977  -0.00438  -0.05525  -0.12244   0.00765
  63        2PX         0.08272  -0.01163  -0.07015  -0.04167  -0.03016
  64        2PY         0.05717   0.00539  -0.02877   0.06523  -0.13516
  65        2PZ        -0.06153   0.02097   0.03237  -0.09094  -0.04486
  66        3S         -0.09290   0.01598   0.15957   0.35826  -0.03844
  67        3PX        -0.21269   0.02969   0.18080   0.10846   0.08062
  68        3PY        -0.14809  -0.01504   0.07404  -0.17145   0.36578
  69        3PZ         0.16004  -0.05564  -0.08373   0.24202   0.12612
  70        4S          0.02835  -0.01103  -0.00593   0.02681   0.00987
  71        4PX        -0.03869   0.00671   0.03163   0.02101   0.03364
  72        4PY        -0.01189  -0.01148   0.00556  -0.01960   0.11254
  73        4PZ         0.01438  -0.01078  -0.00745   0.04782   0.03229
  74        5XX         0.02435  -0.00189  -0.01777  -0.00046   0.01224
  75        5YY        -0.00281  -0.00480  -0.00206   0.00030   0.01451
  76        5ZZ        -0.01611   0.00590   0.00898  -0.02856  -0.02183
  77        5XY         0.00293   0.01546   0.01468  -0.00159   0.01379
  78        5XZ         0.00052   0.01365  -0.01798   0.00773   0.00135
  79        5YZ         0.01938  -0.00455  -0.01874   0.01310   0.01006
  80 6   O  1S         -0.00374  -0.00924   0.02314   0.08874   0.04649
  81        2S          0.00780   0.02130  -0.05355  -0.19314  -0.09462
  82        2PX        -0.04596   0.02561   0.02020  -0.06311  -0.04108
  83        2PY        -0.01938  -0.00186  -0.00689  -0.13527   0.10758
  84        2PZ         0.04204   0.00326  -0.06292  -0.21826  -0.20281
  85        3S          0.00768   0.03717  -0.07263  -0.34240  -0.22261
  86        3PX        -0.02239   0.01498   0.00821  -0.02158  -0.01145
  87        3PY        -0.00733  -0.00080  -0.00431  -0.06642   0.07359
  88        3PZ         0.02281  -0.00168  -0.03140  -0.09913  -0.09526
  89        4XX         0.00304  -0.00149  -0.00232   0.00269   0.00276
  90        4YY         0.00113   0.00035  -0.00125   0.00621  -0.00186
  91        4ZZ        -0.00673   0.00022   0.00704   0.01677   0.01883
  92        4XY         0.00235  -0.00016  -0.00069   0.00418  -0.00457
  93        4XZ         0.00235  -0.00173  -0.00071   0.00488   0.00457
  94        4YZ         0.00062  -0.00012   0.00145   0.00985  -0.00794
  95 7   O  1S         -0.01338   0.01316   0.02924   0.06244  -0.06885
  96        2S          0.02948  -0.03085  -0.06733  -0.13878   0.13817
  97        2PX        -0.05157  -0.01292   0.03041  -0.02796   0.14921
  98        2PY        -0.06461   0.02123   0.07852   0.12487  -0.20122
  99        2PZ         0.02945  -0.00407   0.00340   0.18908  -0.10936
 100        3S          0.04147  -0.04706  -0.09446  -0.22564   0.32893
 101        3PX        -0.02681  -0.00918   0.01509  -0.01018   0.06511
 102        3PY        -0.03191   0.00889   0.03803   0.05410  -0.08539
 103        3PZ         0.01555  -0.00275  -0.00065   0.09856  -0.04116
 104        4XX         0.00287   0.00039  -0.00260   0.00016  -0.00937
 105        4YY        -0.00868   0.00208   0.00814   0.00637  -0.01551
 106        4ZZ         0.00132  -0.00089  -0.00063   0.00916  -0.00898
 107        4XY        -0.00237  -0.00112   0.00124  -0.00108   0.01088
 108        4XZ        -0.00336   0.00014   0.00136  -0.00496   0.00538
 109        4YZ         0.00070   0.00048   0.00179   0.01351  -0.00597
 110 8   O  1S         -0.02118   0.00077   0.01444   0.01984   0.04883
 111        2S          0.05055  -0.00212  -0.02973  -0.05183  -0.10674
 112        2PX         0.10544  -0.01212  -0.05396   0.16363   0.03412
 113        2PY         0.23402  -0.04122  -0.19836   0.16912   0.02503
 114        2PZ        -0.03580  -0.00430   0.03871   0.08112   0.26644
 115        3S          0.06205  -0.00012  -0.04720  -0.04669  -0.20316
 116        3PX         0.06299  -0.00741  -0.02358   0.09924   0.02668
 117        3PY         0.12919  -0.02259  -0.11090   0.09237   0.02749
 118        3PZ        -0.01291  -0.00085   0.01718   0.06190   0.16315
 119        4XX         0.00333  -0.00052  -0.00248  -0.00190  -0.00165
 120        4YY        -0.00014   0.00058   0.00346  -0.00373  -0.00589
 121        4ZZ        -0.00076  -0.00052   0.00400   0.00582   0.02376
 122        4XY         0.00469  -0.00032  -0.00428   0.00121  -0.00320
 123        4XZ         0.00782  -0.00048  -0.00373   0.01102   0.00305
 124        4YZ         0.01577  -0.00261  -0.01362   0.00761   0.00062
 125 9   H  1S          0.11207  -0.01910  -0.08326   0.11402   0.06439
 126        2S          0.05019  -0.00482  -0.04231   0.05252   0.02626
                          26        27        28        29        30
                           O         O         O         O         O
     Eigenvalues --    -0.49511  -0.49329  -0.49180  -0.46967  -0.45929
   1 1   C  1S         -0.01128  -0.01204  -0.00213   0.00087   0.00045
   2        2S          0.03322   0.03493   0.00439   0.00155   0.00017
   3        2PX         0.02422   0.01083   0.00274  -0.03316  -0.00673
   4        2PY         0.01472  -0.01469  -0.05621   0.00040  -0.03666
   5        2PZ        -0.04155   0.04508  -0.02180  -0.02110  -0.00156
   6        3S          0.01353   0.01333   0.01143  -0.02955  -0.00462
   7        3PX         0.07232   0.09311   0.01430   0.02964  -0.00160
   8        3PY        -0.03454   0.00263   0.06585   0.05350   0.08490
   9        3PZ         0.04752  -0.04132   0.03073   0.03426  -0.00159
  10        4XX        -0.01708  -0.02356  -0.00246  -0.01382   0.00464
  11        4YY        -0.00725   0.01946  -0.02415   0.00024  -0.01372
  12        4ZZ         0.01793  -0.00407   0.02610   0.00919   0.01017
  13        4XY         0.00126   0.00123  -0.01317   0.00535   0.02224
  14        4XZ        -0.01124   0.00455  -0.00616   0.00602  -0.00007
  15        4YZ         0.02350  -0.02277  -0.01926   0.00641  -0.01150
  16 2   F  1S          0.00135  -0.00350   0.00156  -0.00074  -0.00022
  17        2S         -0.00834   0.00207  -0.00552  -0.00563   0.00246
  18        2PX         0.36146   0.03110   0.20465   0.06840  -0.08484
  19        2PY        -0.16604   0.12309   0.31658  -0.02226   0.26135
  20        2PZ         0.04078  -0.10590  -0.03537   0.09667   0.04463
  21        3S          0.02751   0.02388   0.01180   0.03712   0.00278
  22        3PX         0.24836   0.01255   0.14360   0.04830  -0.05637
  23        3PY        -0.11023   0.08889   0.21651  -0.02028   0.16598
  24        3PZ         0.03617  -0.06261  -0.02267   0.07494   0.03200
  25        4XX         0.00589  -0.00421   0.00389  -0.00442  -0.00149
  26        4YY        -0.00804   0.00231   0.00062  -0.00533   0.00110
  27        4ZZ        -0.00152  -0.00516  -0.00561   0.00197   0.00300
  28        4XY         0.00042   0.00215   0.00439   0.00118   0.00451
  29        4XZ         0.01412   0.00021   0.00733   0.00308  -0.00276
  30        4YZ        -0.00498   0.00427   0.01169  -0.00193   0.00626
  31 3   F  1S         -0.00115  -0.00143  -0.00266   0.00054   0.00291
  32        2S         -0.00265  -0.00263   0.00711   0.00712  -0.00811
  33        2PX         0.13976   0.20649  -0.30044   0.15450   0.34329
  34        2PY        -0.09440   0.08965   0.08205   0.01523   0.31145
  35        2PZ         0.30786  -0.26380   0.01662   0.11734   0.05072
  36        3S          0.02893   0.03061  -0.01460  -0.02526  -0.03452
  37        3PX         0.08967   0.13493  -0.21321   0.10196   0.22696
  38        3PY        -0.07375   0.05180   0.05707   0.01462   0.21369
  39        3PZ         0.20802  -0.18383   0.00987   0.07859   0.03878
  40        4XX        -0.00160  -0.00112  -0.00618   0.00564   0.00913
  41        4YY         0.00457  -0.00708   0.00000   0.00280  -0.01362
  42        4ZZ        -0.00785   0.00245   0.00555   0.00180   0.00196
  43        4XY        -0.00594  -0.00664   0.01187  -0.00438  -0.00664
  44        4XZ         0.00115  -0.00455   0.00283   0.00002  -0.00302
  45        4YZ        -0.00999   0.00903  -0.00140  -0.00364  -0.00523
  46 4   F  1S         -0.00326   0.00144   0.00149  -0.00170  -0.00135
  47        2S          0.00490  -0.01028  -0.00347  -0.01036   0.00371
  48        2PX        -0.03871   0.40091   0.17934   0.06904  -0.20537
  49        2PY         0.05471  -0.11230   0.23590  -0.01730   0.33921
  50        2PZ         0.15058  -0.07633   0.25564   0.05392  -0.02877
  51        3S          0.01248   0.03371   0.00411   0.04244   0.02280
  52        3PX        -0.03517   0.27599   0.12540   0.05028  -0.13454
  53        3PY         0.04544  -0.06935   0.16040  -0.01011   0.22638
  54        3PZ         0.09935  -0.05829   0.17421   0.02234  -0.02634
  55        4XX        -0.00460   0.00800   0.00580  -0.00459  -0.00762
  56        4YY         0.00562  -0.01083   0.00831  -0.00736   0.00890
  57        4ZZ        -0.00437  -0.00286  -0.01315  -0.00503   0.00043
  58        4XY         0.00062   0.00839   0.00769   0.00193   0.00215
  59        4XZ         0.00253  -0.01082  -0.00030  -0.00086   0.00466
  60        4YZ         0.00239  -0.00027   0.00053   0.00100  -0.00801
  61 5   S  1S         -0.00172  -0.00498  -0.00101  -0.00517   0.00114
  62        2S          0.00556   0.02060   0.00473   0.02159  -0.00540
  63        2PX        -0.07824  -0.09149  -0.00469  -0.04424   0.00063
  64        2PY         0.02776   0.02275  -0.04505  -0.00196   0.02231
  65        2PZ         0.04058   0.02665  -0.02227  -0.10571   0.01460
  66        3S         -0.02397  -0.05844  -0.01114  -0.06008   0.01250
  67        3PX         0.21452   0.25241   0.01287   0.12575  -0.00282
  68        3PY        -0.07780  -0.06443   0.12061   0.00826  -0.06444
  69        3PZ        -0.11262  -0.07073   0.06004   0.28984  -0.04009
  70        4S         -0.01816  -0.03923  -0.01250  -0.01611   0.01200
  71        4PX         0.07889   0.08376   0.00268   0.01520   0.00007
  72        4PY         0.01865  -0.02686  -0.05050  -0.07965   0.07288
  73        4PZ        -0.05511   0.03646  -0.02202   0.00775   0.01772
  74        5XX         0.02047   0.02066   0.00587  -0.01153  -0.00344
  75        5YY        -0.00826  -0.01010  -0.00447  -0.03953   0.00958
  76        5ZZ        -0.01704  -0.01386   0.00118   0.04658  -0.00862
  77        5XY        -0.00167  -0.00224   0.01492  -0.02354  -0.02016
  78        5XZ         0.00224  -0.01008   0.00487   0.01230  -0.00384
  79        5YZ         0.01121  -0.00768  -0.00267  -0.04455   0.00822
  80 6   O  1S         -0.00889  -0.00569   0.01515   0.03885  -0.00578
  81        2S          0.01142   0.02066  -0.04055  -0.07835   0.01735
  82        2PX         0.13405   0.13766  -0.02530  -0.10608   0.00937
  83        2PY         0.00840  -0.02361   0.01736  -0.23328   0.01470
  84        2PZ        -0.00430  -0.00534  -0.07891  -0.15638   0.04711
  85        3S          0.05748  -0.00891  -0.03426  -0.17008   0.00197
  86        3PX         0.07273   0.08420  -0.01389  -0.06247   0.00476
  87        3PY         0.00058  -0.00742   0.02025  -0.14156  -0.00064
  88        3PZ        -0.00887  -0.00225  -0.04646  -0.06141   0.03128
  89        4XX        -0.00914  -0.00357  -0.00220   0.00515   0.00206
  90        4YY        -0.00306   0.00377  -0.00460   0.00688   0.00268
  91        4ZZ         0.00003   0.00773   0.00317   0.00780  -0.00147
  92        4XY        -0.00234  -0.00200  -0.00053   0.00544  -0.00065
  93        4XZ        -0.00907  -0.00988   0.00236   0.00699  -0.00074
  94        4YZ         0.00094   0.00248  -0.00275   0.01520   0.00034
  95 7   O  1S          0.03033   0.02158  -0.02370  -0.02235   0.01029
  96        2S         -0.06285  -0.04183   0.06237   0.05484  -0.02964
  97        2PX         0.04421   0.09048   0.05611   0.16052  -0.01055
  98        2PY         0.15938   0.12111  -0.09790  -0.15296   0.08395
  99        2PZ         0.03256   0.04666  -0.04841   0.06444   0.04325
 100        3S         -0.13973  -0.10723   0.06000   0.05843  -0.00884
 101        3PX         0.02516   0.05812   0.03368   0.10492  -0.00420
 102        3PY         0.07116   0.05937  -0.04909  -0.07844   0.04610
 103        3PZ         0.01462   0.01118  -0.02587   0.04376   0.02882
 104        4XX        -0.00138  -0.00288   0.00232  -0.00435  -0.00409
 105        4YY         0.01243   0.01292  -0.00033  -0.00579   0.00102
 106        4ZZ         0.00098   0.00262   0.00303   0.01142  -0.00213
 107        4XY         0.00194   0.00568   0.00455   0.01176  -0.00141
 108        4XZ         0.00285   0.00315   0.00229   0.00128  -0.00058
 109        4YZ         0.00430   0.00374  -0.00246   0.00426   0.00288
 110 8   O  1S          0.01973   0.00568   0.01104  -0.05772   0.00246
 111        2S         -0.03507  -0.02084  -0.02830   0.12340  -0.00276
 112        2PX         0.14374   0.09185   0.00586  -0.12660  -0.02269
 113        2PY        -0.01825  -0.07067  -0.00184  -0.09653   0.04809
 114        2PZ         0.05246   0.01303   0.07270  -0.28337  -0.00897
 115        3S         -0.11359   0.00081  -0.02866   0.25791  -0.02860
 116        3PX         0.09650   0.05420   0.00159  -0.08839  -0.01847
 117        3PY        -0.00397  -0.05087  -0.00393  -0.06257   0.03575
 118        3PZ         0.02704   0.00709   0.05148  -0.18113  -0.01449
 119        4XX         0.00370  -0.00307  -0.00207  -0.00145   0.00210
 120        4YY         0.00403  -0.00157  -0.00387   0.00070   0.00124
 121        4ZZ         0.00735  -0.00335   0.00595  -0.02469  -0.00073
 122        4XY        -0.00269  -0.00382  -0.00036  -0.00116   0.00051
 123        4XZ         0.01048   0.00630   0.00125  -0.01011  -0.00176
 124        4YZ        -0.00066  -0.00403  -0.00088  -0.00629   0.00322
 125 9   H  1S          0.04597   0.00128   0.01349  -0.13571   0.00998
 126        2S          0.02652   0.00701   0.01854  -0.09754   0.00081
                          31        32        33        34        35
                           O         O         O         O         O
     Eigenvalues --    -0.45665  -0.43805  -0.40336  -0.38087  -0.36681
   1 1   C  1S          0.00027  -0.00018  -0.00871  -0.03344  -0.02200
   2        2S          0.00008   0.00078   0.01709   0.05643   0.04210
   3        2PX        -0.00471   0.00189   0.04932   0.17650   0.11700
   4        2PY        -0.00369  -0.00115  -0.00350  -0.01458  -0.00923
   5        2PZ         0.03581   0.00225   0.00252   0.00612   0.00508
   6        3S         -0.00486  -0.00031   0.05636   0.27868   0.16008
   7        3PX         0.00999  -0.00049   0.00885   0.07814   0.04416
   8        3PY         0.01826   0.00390  -0.01746   0.01421   0.04950
   9        3PZ        -0.08072  -0.00834   0.08719  -0.00493   0.02604
  10        4XX         0.00011   0.00055   0.00621   0.01966   0.01317
  11        4YY         0.00959   0.00021  -0.00214  -0.00959  -0.00651
  12        4ZZ        -0.01019  -0.00057  -0.00409  -0.01024  -0.00554
  13        4XY         0.00370   0.00044  -0.00204  -0.00356   0.00253
  14        4XZ        -0.02437  -0.00076   0.00302   0.00202   0.00194
  15        4YZ        -0.00719  -0.00167  -0.00135  -0.00005  -0.00016
  16 2   F  1S          0.00183   0.00046  -0.00129   0.00267   0.00069
  17        2S         -0.00566  -0.00072  -0.01394   0.00360  -0.00346
  18        2PX         0.35895   0.04829  -0.04194  -0.09947  -0.04986
  19        2PY        -0.06830   0.40996   0.03034   0.01334  -0.03655
  20        2PZ        -0.32315  -0.11109  -0.00667  -0.03183  -0.01038
  21        3S         -0.02670  -0.00449   0.04960  -0.04534  -0.00060
  22        3PX         0.23743   0.03151  -0.02561  -0.07931  -0.03880
  23        3PY        -0.05156   0.27527   0.02704   0.00455  -0.03122
  24        3PZ        -0.22002  -0.07533   0.00492  -0.03327  -0.00743
  25        4XX         0.01020   0.00164  -0.00713   0.00456  -0.00021
  26        4YY         0.00157   0.00376  -0.00618   0.00378  -0.00147
  27        4ZZ        -0.01443  -0.00503  -0.00715   0.00213  -0.00103
  28        4XY         0.00194   0.00754  -0.00027  -0.00039   0.00013
  29        4XZ         0.00659  -0.00066  -0.00011  -0.00205  -0.00056
  30        4YZ        -0.00536   0.01044   0.00194  -0.00067  -0.00268
  31 3   F  1S         -0.00051   0.00006   0.00095   0.00308   0.00601
  32        2S          0.00302  -0.00014   0.00716   0.00755   0.00232
  33        2PX        -0.04616  -0.02491   0.00109  -0.08627  -0.14284
  34        2PY         0.00842  -0.10503   0.03334   0.04079   0.01192
  35        2PZ        -0.25065   0.35931  -0.03849  -0.00887   0.00042
  36        3S          0.00260  -0.00081  -0.02643  -0.05913  -0.08041
  37        3PX        -0.03135  -0.01689  -0.00520  -0.07104  -0.10732
  38        3PY         0.00231  -0.07073   0.03034   0.04191   0.02586
  39        3PZ        -0.15775   0.24197  -0.03548  -0.00012   0.00305
  40        4XX        -0.00067  -0.00064   0.00420   0.00690   0.00712
  41        4YY         0.00088   0.00500   0.00133   0.00384   0.00508
  42        4ZZ         0.00204  -0.00439   0.00633   0.00591   0.00638
  43        4XY         0.00249  -0.00118  -0.00055   0.00140   0.00346
  44        4XZ        -0.00466   0.00627   0.00089   0.00053   0.00081
  45        4YZ         0.00530  -0.00898   0.00314  -0.00065  -0.00022
  46 4   F  1S         -0.00211  -0.00038   0.00256   0.00324   0.00075
  47        2S          0.00294   0.00105   0.01274  -0.00647  -0.00239
  48        2PX        -0.22733  -0.02530  -0.06426  -0.16778  -0.04168
  49        2PY         0.12319  -0.26621   0.00444   0.01269  -0.03269
  50        2PZ        -0.28495  -0.32024  -0.01048  -0.00481  -0.01094
  51        3S          0.03362   0.00341  -0.06446  -0.02868  -0.00573
  52        3PX        -0.14897  -0.01604  -0.05252  -0.12367  -0.03294
  53        3PY         0.09143  -0.17855  -0.01123   0.00247  -0.03012
  54        3PZ        -0.19173  -0.21543  -0.00338   0.00138  -0.01107
  55        4XX        -0.00984  -0.00071   0.00696  -0.00027   0.00027
  56        4YY         0.00306  -0.00827   0.00597  -0.00028  -0.00318
  57        4ZZ         0.00550   0.00934   0.00914   0.00003   0.00126
  58        4XY        -0.00330  -0.00610  -0.00144  -0.00263  -0.00073
  59        4XZ        -0.00119  -0.00627   0.00139   0.00246   0.00023
  60        4YZ        -0.00877  -0.00131  -0.00055   0.00007   0.00085
  61 5   S  1S          0.00018   0.00015   0.00257   0.00052   0.00216
  62        2S         -0.00104  -0.00075  -0.00981   0.00194  -0.00718
  63        2PX        -0.00906   0.00108   0.01751   0.03766   0.00240
  64        2PY        -0.00335  -0.00028  -0.01443  -0.00279  -0.01254
  65        2PZ        -0.02760   0.00045  -0.00903   0.00211   0.01121
  66        3S          0.00223   0.00144   0.03304   0.01183   0.03118
  67        3PX         0.02497  -0.00303  -0.05029  -0.11823  -0.01455
  68        3PY         0.00929   0.00031   0.03896   0.00944   0.03513
  69        3PZ         0.07853  -0.00136   0.02610  -0.00743  -0.03263
  70        4S         -0.00221   0.00444   0.00495  -0.00046   0.00717
  71        4PX         0.00398  -0.00124   0.01783   0.14686   0.07440
  72        4PY        -0.01567   0.00187   0.00656  -0.11842   0.09091
  73        4PZ        -0.06649  -0.00316  -0.13247   0.07512   0.00018
  74        5XX        -0.00134   0.00073   0.02117   0.09291   0.05879
  75        5YY        -0.00894   0.00103  -0.08848  -0.03616  -0.03905
  76        5ZZ         0.00779  -0.00169   0.07148  -0.03674  -0.01513
  77        5XY        -0.00239   0.00008   0.02220  -0.00151  -0.10186
  78        5XZ         0.02264  -0.00004  -0.03727  -0.01683  -0.03817
  79        5YZ        -0.00165   0.00180   0.07376  -0.11104   0.01885
  80 6   O  1S          0.01008  -0.00007   0.00784  -0.00832  -0.00123
  81        2S         -0.02876  -0.00075  -0.02612   0.02072   0.00602
  82        2PX        -0.00385  -0.00013  -0.18473   0.15925  -0.06363
  83        2PY        -0.05378   0.00890   0.03080  -0.21176   0.05125
  84        2PZ        -0.08305  -0.00173  -0.08797   0.21501   0.09389
  85        3S         -0.00896   0.00237   0.02136  -0.00063  -0.02017
  86        3PX        -0.00070  -0.00056  -0.14025   0.09400  -0.05812
  87        3PY        -0.03767   0.00798   0.01736  -0.13901   0.01922
  88        3PZ        -0.04757  -0.00230  -0.04520   0.13701   0.07168
  89        4XX        -0.00420  -0.00027   0.00446   0.00167   0.00814
  90        4YY        -0.00171  -0.00068  -0.00971   0.01064   0.00108
  91        4ZZ         0.00163  -0.00006  -0.00530  -0.00859  -0.00339
  92        4XY         0.00079  -0.00053   0.00255   0.00512  -0.00172
  93        4XZ         0.00098   0.00022   0.00937  -0.00943   0.00474
  94        4YZ         0.00375  -0.00057  -0.00278   0.01150  -0.00152
  95 7   O  1S         -0.00381   0.00013  -0.00184  -0.00630  -0.00098
  96        2S          0.01261   0.00111   0.00816   0.01949   0.00440
  97        2PX         0.01652  -0.00049   0.02211   0.20760   0.47465
  98        2PY        -0.04214   0.00068   0.10414  -0.21247   0.26271
  99        2PZ         0.00534   0.00212  -0.33429   0.12134  -0.02906
 100        3S         -0.00534  -0.00361  -0.01581  -0.02235   0.01651
 101        3PX         0.00905   0.00129   0.01687   0.12875   0.33441
 102        3PY        -0.02935  -0.00149   0.07447  -0.13076   0.17525
 103        3PZ         0.01307   0.00360  -0.22373   0.07612  -0.02032
 104        4XX         0.00147   0.00037   0.00193   0.00094  -0.01998
 105        4YY        -0.00160   0.00034   0.01447  -0.00532   0.02225
 106        4ZZ         0.00376   0.00071  -0.01332   0.01361  -0.00358
 107        4XY         0.00117   0.00024  -0.00083   0.01165   0.02323
 108        4XZ         0.00063  -0.00029   0.00693  -0.00039   0.01618
 109        4YZ         0.00130   0.00010  -0.01641   0.00514   0.00390
 110 8   O  1S         -0.00452   0.00118   0.00123   0.00624   0.00848
 111        2S          0.01298  -0.00145   0.00684  -0.01841  -0.01635
 112        2PX        -0.03396   0.00606   0.38568   0.25326  -0.14702
 113        2PY         0.03167   0.00355  -0.11890  -0.20796   0.21526
 114        2PZ        -0.04471   0.00158  -0.22866   0.11048  -0.05199
 115        3S          0.00223  -0.00877  -0.06138   0.01972  -0.07401
 116        3PX        -0.02738   0.00441   0.29147   0.16915  -0.11103
 117        3PY         0.03109   0.00010  -0.08223  -0.15430   0.15820
 118        3PZ        -0.02767  -0.00236  -0.17093   0.07802  -0.05694
 119        4XX         0.00240   0.00050   0.00810   0.00151   0.00386
 120        4YY        -0.00016   0.00036   0.01309  -0.00261   0.00349
 121        4ZZ        -0.00132   0.00058  -0.01265   0.00034  -0.00330
 122        4XY         0.00086   0.00032  -0.00447  -0.00256   0.00197
 123        4XZ        -0.00178   0.00078   0.01910   0.01294  -0.00934
 124        4YZ         0.00162   0.00014  -0.00288  -0.01065   0.01144
 125 9   H  1S         -0.00871   0.00459   0.01857   0.02118   0.02549
 126        2S         -0.00544   0.00295   0.01466   0.00199   0.00715
                          36        37        38        39        40
                           O         O         V         V         V
     Eigenvalues --    -0.36166  -0.34223  -0.02726  -0.01566   0.01984
   1 1   C  1S         -0.02990  -0.00938  -0.04098   0.09898   0.04394
   2        2S          0.05290   0.01791   0.09844  -0.22545  -0.10212
   3        2PX         0.15161   0.04547   0.12406  -0.34875  -0.10155
   4        2PY        -0.01478  -0.00450  -0.12313  -0.09514   0.31307
   5        2PZ         0.00490   0.00363   0.17938   0.07598   0.21567
   6        3S          0.23341   0.06665   0.27207  -0.72615  -0.29820
   7        3PX         0.06601   0.01795   0.06919  -0.32207  -0.06523
   8        3PY        -0.02306  -0.02639  -0.25015  -0.13929   0.38857
   9        3PZ        -0.04099   0.01053   0.27287   0.12131   0.28113
  10        4XX         0.01549   0.00379  -0.00824   0.00516   0.01160
  11        4YY        -0.00727  -0.00285  -0.00263   0.01027  -0.01962
  12        4ZZ        -0.00847  -0.00147   0.00316   0.00598   0.01847
  13        4XY        -0.00380  -0.00010  -0.01566  -0.02086   0.03582
  14        4XZ        -0.00292   0.00317   0.02789   0.01380   0.02658
  15        4YZ         0.00023  -0.00021   0.00384   0.00450  -0.00513
  16 2   F  1S          0.00607   0.00008  -0.01308  -0.01706  -0.03664
  17        2S          0.00135   0.00467   0.01911   0.02893   0.06686
  18        2PX        -0.15568   0.00618   0.05463   0.12039   0.15909
  19        2PY         0.01080  -0.00724   0.05950   0.05425  -0.05928
  20        2PZ        -0.01244  -0.00670   0.02245   0.06800   0.15373
  21        3S         -0.07970  -0.01018   0.12571   0.14887   0.31685
  22        3PX        -0.11947   0.00039   0.04959   0.11965   0.14544
[...]
 126        2S         -0.00016   0.00099  -0.00005   0.00001   0.00002
                         106       107       108       109       110
 106        4ZZ         0.00190
 107        4XY         0.00000   0.00245
 108        4XZ        -0.00000   0.00000   0.00100
 109        4YZ         0.00000   0.00000  -0.00000   0.00201
 110 8   O  1S         -0.00000   0.00000  -0.00000   0.00000   2.07661
 111        2S          0.00000  -0.00000   0.00000  -0.00000  -0.04252
 112        2PX        -0.00000   0.00000   0.00000  -0.00000   0.00000
 113        2PY         0.00000   0.00000   0.00000   0.00000   0.00000
 114        2PZ         0.00000  -0.00000  -0.00000   0.00000   0.00000
 115        3S          0.00012  -0.00000   0.00000  -0.00004  -0.04142
 116        3PX        -0.00000   0.00000   0.00001  -0.00000   0.00000
 117        3PY         0.00019  -0.00000   0.00000  -0.00001   0.00000
 118        3PZ        -0.00000  -0.00000  -0.00000   0.00001   0.00000
 119        4XX        -0.00000  -0.00000   0.00000   0.00000  -0.00051
 120        4YY        -0.00000  -0.00000  -0.00000   0.00000  -0.00066
 121        4ZZ        -0.00000  -0.00000   0.00000  -0.00000  -0.00043
 122        4XY        -0.00000   0.00000  -0.00000  -0.00000  -0.00000
 123        4XZ         0.00000  -0.00000  -0.00000   0.00000  -0.00000
 124        4YZ        -0.00000  -0.00000  -0.00000   0.00000   0.00000
 125 9   H  1S         -0.00000  -0.00000   0.00000  -0.00000  -0.00063
 126        2S         -0.00001  -0.00001   0.00000  -0.00000   0.00051
                         111       112       113       114       115
 111        2S          0.51860
 112        2PX         0.00000   0.71412
 113        2PY         0.00000  -0.00000   0.61058
 114        2PZ         0.00000  -0.00000   0.00000   0.67989
 115        3S          0.45489   0.00000   0.00000   0.00000   0.77276
 116        3PX         0.00000   0.25115  -0.00000  -0.00000   0.00000
 117        3PY         0.00000  -0.00000   0.19487   0.00000   0.00000
 118        3PZ         0.00000  -0.00000   0.00000   0.22874   0.00000
 119        4XX        -0.00085   0.00000   0.00000   0.00000  -0.00306
 120        4YY         0.00470   0.00000   0.00000   0.00000   0.00472
 121        4ZZ        -0.00416   0.00000   0.00000   0.00000  -0.01200
 122        4XY         0.00000   0.00000   0.00000   0.00000   0.00000
 123        4XZ         0.00000   0.00000   0.00000   0.00000  -0.00000
 124        4YZ        -0.00000   0.00000   0.00000   0.00000  -0.00000
 125 9   H  1S          0.01192   0.01960   0.02887   0.01903   0.00800
 126        2S         -0.00736   0.00648   0.00975   0.00543  -0.03514
                         116       117       118       119       120
 116        3PX         0.35531
 117        3PY        -0.00000   0.25433
 118        3PZ        -0.00000   0.00000   0.30987
 119        4XX         0.00000   0.00000   0.00000   0.00057
 120        4YY         0.00000   0.00000   0.00000   0.00014   0.00085
 121        4ZZ         0.00000   0.00000   0.00000  -0.00011  -0.00015
 122        4XY         0.00000   0.00000   0.00000  -0.00000   0.00000
 123        4XZ         0.00000   0.00000   0.00000   0.00000   0.00000
 124        4YZ         0.00000   0.00000   0.00000   0.00000  -0.00000
 125 9   H  1S          0.02900   0.04023   0.03140   0.00020  -0.00000
 126        2S          0.01338   0.01922   0.01221   0.00041  -0.00020
                         121       122       123       124       125
 121        4ZZ         0.00353
 122        4XY         0.00000   0.00070
 123        4XZ         0.00000  -0.00000   0.00247
 124        4YZ         0.00000   0.00000   0.00000   0.00221
 125 9   H  1S          0.00284   0.00123   0.00214   0.00250   0.16937
 126        2S          0.00251   0.00007   0.00024   0.00029   0.05022
                         126
 126        2S          0.04349
     Gross orbital populations:
                           1
   1 1   C  1S          1.99218
   2        2S          0.71647
   3        2PX         0.66855
   4        2PY         0.54658
   5        2PZ         0.54497
   6        3S          0.35801
   7        3PX         0.18835
   8        3PY         0.12162
   9        3PZ         0.12787
  10        4XX         0.01550
  11        4YY         0.00828
  12        4ZZ         0.00710
  13        4XY         0.02286
  14        4XZ         0.02290
  15        4YZ         0.03304
  16 2   F  1S          1.99332
  17        2S          0.95567
  18        2PX         1.13769
  19        2PY         1.18426
  20        2PZ         0.97074
  21        3S          0.97209
  22        3PX         0.69212
  23        3PY         0.70758
  24        3PZ         0.56436
  25        4XX         0.01102
  26        4YY         0.00735
  27        4ZZ         0.02922
  28        4XY         0.00086
  29        4XZ         0.00509
  30        4YZ         0.00341
  31 3   F  1S          1.99331
  32        2S          0.95518
  33        2PX         1.14979
  34        2PY         0.97139
  35        2PZ         1.17481
  36        3S          0.97100
  37        3PX         0.69883
  38        3PY         0.56189
  39        3PZ         0.69980
  40        4XX         0.01006
  41        4YY         0.02926
  42        4ZZ         0.00819
  43        4XY         0.00475
  44        4XZ         0.00093
  45        4YZ         0.00397
  46 4   F  1S          1.99331
  47        2S          0.95596
  48        2PX         1.11051
  49        2PY         1.08625
  50        2PZ         1.09559
  51        3S          0.97224
  52        3PX         0.67619
  53        3PY         0.64242
  54        3PZ         0.64835
  55        4XX         0.01329
  56        4YY         0.01652
  57        4ZZ         0.01551
  58        4XY         0.00349
  59        4XZ         0.00331
  60        4YZ         0.00474
  61 5   S  1S          1.99861
  62        2S          1.98808
  63        2PX         1.98872
  64        2PY         1.98856
  65        2PZ         1.98865
  66        3S          1.34774
  67        3PX         0.91117
  68        3PY         0.84031
  69        3PZ         0.84312
  70        4S         -0.05403
  71        4PX         0.16958
  72        4PY         0.14692
  73        4PZ         0.13035
  74        5XX         0.07515
  75        5YY         0.06713
  76        5ZZ         0.06247
  77        5XY         0.08860
  78        5XZ         0.09161
  79        5YZ         0.16875
  80 6   O  1S          1.99267
  81        2S          0.92969
  82        2PX         0.96048
  83        2PY         0.99962
  84        2PZ         0.89043
  85        3S          1.00071
  86        3PX         0.62039
  87        3PY         0.63669
  88        3PZ         0.44015
  89        4XX        -0.00611
  90        4YY        -0.00825
  91        4ZZ         0.01020
  92        4XY         0.00227
  93        4XZ         0.00887
  94        4YZ         0.00798
  95 7   O  1S          1.99265
  96        2S          0.93690
  97        2PX         0.97459
  98        2PY         0.90137
  99        2PZ         0.97799
 100        3S          0.97187
 101        3PX         0.61656
 102        3PY         0.43629
 103        3PZ         0.58969
 104        4XX        -0.00517
 105        4YY         0.01049
 106        4ZZ        -0.00410
 107        4XY         0.00847
 108        4XZ         0.00322
 109        4YZ         0.00853
 110 8   O  1S          1.99254
 111        2S          0.91628
 112        2PX         1.01073
 113        2PY         0.88953
 114        2PZ         0.97240
 115        3S          0.98726
 116        3PX         0.68050
 117        3PY         0.53728
 118        3PZ         0.61101
 119        4XX        -0.00191
 120        4YY         0.01316
 121        4ZZ        -0.00028
 122        4XY         0.00259
 123        4XZ         0.00656
 124        4YZ         0.01024
 125 9   H  1S          0.41522
 126        2S          0.13035
          Condensed to atoms (all electrons):
               1          2          3          4          5          6
     1  C    4.738838   0.210843   0.207001   0.224838   0.086411  -0.031512
     2  F    0.210843   9.081990  -0.033140  -0.034155   0.009346   0.000217
     3  F    0.207001  -0.033140   9.081109  -0.033407   0.012227  -0.000434
     4  F    0.224838  -0.034155  -0.033407   9.074898   0.005188   0.000008
     5  S    0.086411   0.009346   0.012227   0.005188  13.652384   0.436715
     6  O   -0.031512   0.000217  -0.000434   0.000008   0.436715   8.175215
     7  O   -0.038174  -0.000153   0.000230   0.000108   0.472439  -0.044785
     8  O   -0.025062  -0.000172  -0.000114   0.000213   0.166269  -0.055547
     9  H    0.001093  -0.000002  -0.000298  -0.000005   0.000507   0.005920
               7          8          9
     1  C   -0.038174  -0.025062   0.001093
     2  F   -0.000153  -0.000172  -0.000002
     3  F    0.000230  -0.000114  -0.000298
     4  F    0.000108   0.000213  -0.000005
     5  S    0.472439   0.166269   0.000507
     6  O   -0.044785  -0.055547   0.005920
     7  O    8.079633  -0.050895   0.000947
     8  O   -0.050895   8.369086   0.224108
     9  H    0.000947   0.224108   0.313296
 Mulliken charges:
               1
     1  C    0.625723
     2  F   -0.234774
     3  F   -0.233173
     4  F   -0.237685
     5  S    1.158512
     6  O   -0.485797
     7  O   -0.419351
     8  O   -0.627887
     9  H    0.454432
 Sum of Mulliken charges =  -0.00000
 Mulliken charges with hydrogens summed into heavy atoms:
               1
     1  C    0.625723
     2  F   -0.234774
     3  F   -0.233173
     4  F   -0.237685
     5  S    1.158512
     6  O   -0.485797
     7  O   -0.419351
     8  O   -0.173454
 Electronic spatial extent (au):  <R**2>=            899.3658
 Charge=             -0.0000 electrons
 Dipole moment (field-independent basis, Debye):
    X=             -0.1520    Y=              2.2952    Z=             -0.1839  Tot=              2.3076
 Quadrupole moment (field-independent basis, Debye-Ang):
   XX=            -47.9897   YY=            -47.3759   ZZ=            -53.5919
   XY=              5.5642   XZ=             -0.9823   YZ=             -1.1463
 Traceless Quadrupole moment (field-independent basis, Debye-Ang):
   XX=              1.6628   YY=              2.2766   ZZ=             -3.9394
   XY=              5.5642   XZ=             -0.9823   YZ=             -1.1463
 Octapole moment (field-independent basis, Debye-Ang**2):
  XXX=            -10.9384  YYY=             13.6209  ZZZ=             -2.5238  XYY=              0.9073
  XXY=             12.3533  XXZ=             -2.5176  XZZ=            -11.5579  YZZ=             -1.3216
  YYZ=              0.8508  XYZ=             -2.1959
 Hexadecapole moment (field-independent basis, Debye-Ang**3):
 XXXX=           -475.2501 YYYY=           -199.8169 ZZZZ=           -211.3795 XXXY=             24.2028
 XXXZ=             -5.0445 YYYX=             25.6872 YYYZ=             -4.0183 ZZZX=             -3.7544
 ZZZY=              0.6670 XXYY=           -103.1523 XXZZ=           -126.0591 YYZZ=            -71.4984
 XXYZ=             -4.0089 YYXZ=             -0.3878 ZZXY=             -1.7214
 N-N= 5.552186942631D+02 E-N=-3.389095973779D+03  KE= 9.559770585567D+02
 Orbital energies and kinetic energies (alpha):
                                 1                 2
   1         O               -89.173996        120.981458
   2         O               -24.775042         37.083277
   3         O               -24.771185         37.083426
   4         O               -24.769814         37.083404
   5         O               -19.242606         29.029079
   6         O               -19.199687         29.027567
   7         O               -19.194413         29.028039
   8         O               -10.500159         15.901284
   9         O                -8.199304         18.524502
  10         O                -6.164779         17.519587
  11         O                -6.162698         17.513230
  12         O                -6.162558         17.514687
  13         O                -1.336284          3.276246
  14         O                -1.254165          3.837331
  15         O                -1.249292          3.840402
  16         O                -1.186714          2.672456
  17         O                -1.066909          2.857686
  18         O                -1.053474          2.908106
  19         O                -0.794581          2.560686
  20         O                -0.692132          2.909031
  21         O                -0.627052          2.393814
  22         O                -0.618441          2.814789
  23         O                -0.611265          2.634781
  24         O                -0.555709          2.672380
  25         O                -0.513397          2.574006
  26         O                -0.495105          2.920468
  27         O                -0.493292          2.957366
  28         O                -0.491797          3.124839
  29         O                -0.469666          2.496783
  30         O                -0.459291          3.350112
  31         O                -0.456650          3.347001
  32         O                -0.438054          3.541256
  33         O                -0.403358          2.255449
  34         O                -0.380873          2.435969
  35         O                -0.366807          2.410600
  36         O                -0.361656          2.416707
  37         O                -0.342231          2.490726
  38         V                -0.027263          2.600386
  39         V                -0.015663          3.134145
  40         V                 0.019835          2.887885
  41         V                 0.040134          2.421465
  42         V                 0.092524          3.410187
  43         V                 0.134388          3.297645
  44         V                 0.154466          3.977816
  45         V                 0.187353          3.184801
  46         V                 0.285278          2.096087
  47         V                 0.313775          1.966774
  48         V                 0.342154          2.203494
  49         V                 0.389296          2.713733
  50         V                 0.458569          2.545812
  51         V                 0.487875          2.520687
  52         V                 0.512720          2.409332
  53         V                 0.646717          2.379268
  54         V                 0.679489          2.619411
  55         V                 0.710265          2.750998
  56         V                 0.754718          2.624163
  57         V                 0.788415          2.656253
  58         V                 0.801285          2.811949
  59         V                 0.868572          3.142735
  60         V                 0.879085          2.624185
  61         V                 0.929030          3.043371
  62         V                 0.970064          3.336741
  63         V                 0.987573          3.257507
  64         V                 0.999037          3.599076
  65         V                 1.011184          3.541807
  66         V                 1.018831          3.493142
  67         V                 1.078597          3.524915
  68         V                 1.101176          3.679928
  69         V                 1.107173          3.962807
  70         V                 1.117235          3.645261
  71         V                 1.163663          3.540610
  72         V                 1.171233          4.417076
  73         V                 1.182898          3.486016
  74         V                 1.273292          3.278754
  75         V                 1.289910          4.366679
  76         V                 1.320799          3.703927
  77         V                 1.342398          2.915503
  78         V                 1.343426          2.917300
  79         V                 1.362282          3.441060
  80         V                 1.375792          3.641009
  81         V                 1.515421          3.109883
  82         V                 1.548812          2.970803
  83         V                 1.586913          3.379790
  84         V                 1.601995          3.373494
  85         V                 1.670400          3.058614
  86         V                 1.714013          2.938122
  87         V                 1.739222          3.154707
  88         V                 1.751870          2.936494
  89         V                 1.766789          3.114973
  90         V                 1.774713          2.959136
  91         V                 1.789420          2.865388
  92         V                 1.798509          3.055561
  93         V                 1.814841          3.091354
  94         V                 1.820967          3.103777
  95         V                 1.828529          3.036261
  96         V                 1.869655          3.301017
  97         V                 1.914283          3.245636
  98         V                 1.930868          3.514558
  99         V                 1.951381          3.627039
 100         V                 2.007056          3.697514
 101         V                 2.012031          3.437953
 102         V                 2.029118          3.892714
 103         V                 2.082892          3.723695
 104         V                 2.119525          3.574196
 105         V                 2.157929          3.854420
 106         V                 2.176339          3.973584
 107         V                 2.191136          3.746591
 108         V                 2.236515          3.820780
 109         V                 2.295026          3.841235
 110         V                 2.451058          4.722918
 111         V                 2.621012          4.436425
 112         V                 2.649089          4.102358
 113         V                 2.650088          4.098796
 114         V                 2.735271          4.827802
 115         V                 2.796622          5.122409
 116         V                 2.898874          6.155507
 117         V                 3.006356          5.754440
 118         V                 3.011266          5.797030
 119         V                 3.572277         10.062624
 120         V                 3.823932         10.632935
 121         V                 3.866671         11.526167
 122         V                 3.933534         11.793589
 123         V                 4.290581         11.788720
 124         V                 4.301546         10.182989
 125         V                 4.402835         11.948890
 126         V                 5.066255         13.963339
 Total kinetic energy from orbitals= 9.559770585567D+02
 Unable to Open any file for archive entry.
 1\1\GINC-SPARTAN-BM162\SP\RB3LYP\6-31G(d)\C1H1F3O3S1\AKHALILOV\20-Mar-
 2025\0\\# B3LYP/6-31G(d) pop=full density=current\\PFMS Time step 5\\0
 ,1\C,0,-0.92353,-0.002367,-0.245528\F,0,-1.065534,0.177862,-1.599953\F
 ,0,-1.555591,1.045872,0.356411\F,0,-1.650091,-1.128157,0.066639\S,0,0.
 851939,-0.150729,0.266009\O,0,0.987194,-0.168535,1.714769\O,0,1.566099
 ,-1.090598,-0.547432\O,0,1.39978,1.333744,-0.161838\H,0,1.747636,1.824
 061,0.712309\\Version=ES64L-G16RevC.01\State=1-A\HF=-961.9812444\RMSD=
 7.447e-09\Dipole=-0.1410165,0.8735675,0.2030943\Quadrupole=0.3934494,1
 .9107232,-2.3041726,3.7527778,1.6165197,1.8986307\PG=C01 [X(C1H1F3O3S1
 )]\\@
 The archive entry for this job was punched.


 ALTHOUGH J.J. COULD DIAGNOSE THE FAULTS OF AN
 APPARATUS WITH UNCANNY ACCURACY, IT WAS JUST AS
 WELL NOT TO LET HIM HANDLE IT.
   -- GEORGE THOMPSON, ABOUT HIS FATHER
 Job cpu time:       0 days  0 hours  0 minutes  9.8 seconds.
 Elapsed time:       0 days  0 hours  0 minutes  3.0 seconds.
 File lengths (MBytes):  RWF=     10 Int=      0 D2E=      0 Chk=      2 Scr=      1
 Normal termination of Gaussian 16 at Thu Mar 20 00:08:42 2025.
