PFMS Time step 10                                                       
SP        RB3LYP                                                      6-31G(d)            
Number of atoms                            I                9
Info1-9                                    I   N=           9
          18          18           0           0           0         110
           1          18        -502
Full Title                                 C   N=           2
PFMS Time step 10       
Route                                      C   N=           4
# B3LYP/6-31G(d) pop=full density=current       
Charge                                     I                0
Multiplicity                               I                1
Number of electrons                        I               74
Number of alpha electrons                  I               37
Number of beta electrons                   I               37
Number of basis functions                  I              126
Number of independent functions            I              126
Number of point charges in /Mol/           I                0
Number of translation vectors              I                0
Atomic numbers                             I   N=           9
           6           9           9           9          16           8
           8           8           1
Nuclear charges                            R   N=           9
  6.00000000E+00  9.00000000E+00  9.00000000E+00  9.00000000E+00  1.60000000E+01
  8.00000000E+00  8.00000000E+00  8.00000000E+00  1.00000000E+00
Current cartesian coordinates              R   N=          27
 -1.87833668E+00  4.27811479E-02  2.08769933E-02 -2.83221509E+00 -3.55969094E-01
 -2.37723292E+00 -2.68115757E+00  2.37657901E+00  7.57930754E-01 -3.11616993E+00
 -1.68054046E+00  1.55590349E+00  1.59599658E+00 -3.30643283E-01  1.51239267E-01
  2.59765774E+00  4.00654390E-01  2.61124800E+00  2.41649262E+00 -2.58239044E+00
 -1.05781205E+00  2.45934310E+00  2.00681660E+00 -1.72509918E+00  3.61201040E+00
  3.37233615E+00 -6.01196310E-01
Number of symbols in /Mol/                 I                0
Int Atom Types                             I   N=           9
           0           0           0           0           0           0
           0           0           0
Force Field                                I                0
Atom Types                                 C   N=           9
                                                            
                                                
MM charges                                 R   N=           9
  0.00000000E+00  0.00000000E+00  0.00000000E+00  0.00000000E+00  0.00000000E+00
  0.00000000E+00  0.00000000E+00  0.00000000E+00  0.00000000E+00
Integer atomic weights                     I   N=           9
          12          19          19          19          32          16
          16          16           1
Real atomic weights                        R   N=           9
  1.20000000E+01  1.89984032E+01  1.89984032E+01  1.89984032E+01  3.19720718E+01
  1.59949146E+01  1.59949146E+01  1.59949146E+01  1.00782504E+00
Atom fragment info                         I   N=           9
           0           0           0           0           0           0
           0           0           0
Atom residue num                           I   N=           9
           0           0           0           0           0           0
           0           0           0
Nuclear spins                              I   N=           9
           0           1           1           1           0           0
           0           0           1
Nuclear ZEff                               R   N=           9
 -3.60000000E+00 -6.75000000E+00 -6.75000000E+00 -6.75000000E+00 -1.36000000E+01
 -5.60000000E+00 -5.60000000E+00 -5.60000000E+00 -1.00000000E+00
Nuclear ZNuc                               R   N=           9
  6.00000000E+00  9.00000000E+00  9.00000000E+00  9.00000000E+00  1.60000000E+01
  8.00000000E+00  8.00000000E+00  8.00000000E+00  1.00000000E+00
Nuclear QMom                               R   N=           9
  0.00000000E+00  0.00000000E+00  0.00000000E+00  0.00000000E+00  0.00000000E+00
  0.00000000E+00  0.00000000E+00  0.00000000E+00  0.00000000E+00
Nuclear GFac                               R   N=           9
  0.00000000E+00  2.62886700E+00  2.62886700E+00  2.62886700E+00  0.00000000E+00
  0.00000000E+00  0.00000000E+00  0.00000000E+00  2.79284600E+00
MicOpt                                     I   N=           9
          -1          -1          -1          -1          -1          -1
          -1          -1          -1
Number of residues                         I                0
Number of secondary structures             I                0
SymInf integers                            I   N=          26
           1           1           1           1           1           0
           0           0           0           0           0           0
           0           0           0           0           0           0
           0           0           0           0           0           0
           0           0
RotTr to input orientation                 R   N=          12
  9.61874656E-01  2.77503305E-02  2.72079152E-01 -1.08592025E-01  9.51808589E-01
  2.86824304E-01 -2.51007805E-01 -3.05434655E-01  9.18534024E-01  7.74973619E-02
  2.23698118E-02  2.47692787E-02
Number of contracted shells                I               35
Number of primitive shells                 I               98
Pure/Cartesian d shells                    I                1
Pure/Cartesian f shells                    I                0
Highest angular momentum                   I                2
Largest degree of contraction              I                6
Shell types                                I   N=          35
           0          -1          -1           2           0          -1
          -1           2           0          -1          -1           2
           0          -1          -1           2           0          -1
          -1          -1           2           0          -1          -1
           2           0          -1          -1           2           0
          -1          -1           2           0           0
Number of primitives per shell             I   N=          35
           6           3           1           1           6           3
           1           1           6           3           1           1
           6           3           1           1           6           6
           3           1           1           6           3           1
           1           6           3           1           1           6
           3           1           1           3           1
Shell to atom map                          I   N=          35
           1           1           1           1           2           2
           2           2           3           3           3           3
           4           4           4           4           5           5
           5           5           5           6           6           6
           6           7           7           7           7           8
           8           8           8           9           9
Primitive exponents                        R   N=          98
  3.04752488E+03  4.57369518E+02  1.03948685E+02  2.92101553E+01  9.28666296E+00
  3.16392696E+00  7.86827235E+00  1.88128854E+00  5.44249258E-01  1.68714478E-01
  8.00000000E-01  7.00171309E+03  1.05136609E+03  2.39285690E+02  6.73974453E+01
  2.15199573E+01  7.40310130E+00  2.08479528E+01  4.80830834E+00  1.34406986E+00
  3.58151393E-01  8.00000000E-01  7.00171309E+03  1.05136609E+03  2.39285690E+02
  6.73974453E+01  2.15199573E+01  7.40310130E+00  2.08479528E+01  4.80830834E+00
  1.34406986E+00  3.58151393E-01  8.00000000E-01  7.00171309E+03  1.05136609E+03
  2.39285690E+02  6.73974453E+01  2.15199573E+01  7.40310130E+00  2.08479528E+01
  4.80830834E+00  1.34406986E+00  3.58151393E-01  8.00000000E-01  2.19171000E+04
  3.30149000E+03  7.54146000E+02  2.12711000E+02  6.79896000E+01  2.30515000E+01
  4.23735000E+02  1.00710000E+02  3.21599000E+01  1.18079000E+01  4.63110000E+00
  1.87025000E+00  2.61584000E+00  9.22167000E-01  3.41287000E-01  1.17167000E-01
  6.50000000E-01  5.48467166E+03  8.25234946E+02  1.88046958E+02  5.29645000E+01
  1.68975704E+01  5.79963534E+00  1.55396162E+01  3.59993359E+00  1.01376175E+00
  2.70005823E-01  8.00000000E-01  5.48467166E+03  8.25234946E+02  1.88046958E+02
  5.29645000E+01  1.68975704E+01  5.79963534E+00  1.55396162E+01  3.59993359E+00
  1.01376175E+00  2.70005823E-01  8.00000000E-01  5.48467166E+03  8.25234946E+02
  1.88046958E+02  5.29645000E+01  1.68975704E+01  5.79963534E+00  1.55396162E+01
  3.59993359E+00  1.01376175E+00  2.70005823E-01  8.00000000E-01  1.87311370E+01
  2.82539436E+00  6.40121692E-01  1.61277759E-01
Contraction coefficients                   R   N=          98
  1.83473713E-03  1.40373228E-02  6.88426223E-02  2.32184443E-01  4.67941348E-01
  3.62311985E-01 -1.19332420E-01 -1.60854152E-01  1.14345644E+00  1.00000000E+00
  1.00000000E+00  1.81961690E-03  1.39160796E-02  6.84053245E-02  2.33185760E-01
  4.71267439E-01  3.56618546E-01 -1.08506975E-01 -1.46451658E-01  1.12868858E+00
  1.00000000E+00  1.00000000E+00  1.81961690E-03  1.39160796E-02  6.84053245E-02
  2.33185760E-01  4.71267439E-01  3.56618546E-01 -1.08506975E-01 -1.46451658E-01
  1.12868858E+00  1.00000000E+00  1.00000000E+00  1.81961690E-03  1.39160796E-02
  6.84053245E-02  2.33185760E-01  4.71267439E-01  3.56618546E-01 -1.08506975E-01
 -1.46451658E-01  1.12868858E+00  1.00000000E+00  1.00000000E+00  1.86924085E-03
  1.42303065E-02  6.96962317E-02  2.38487108E-01  4.83307220E-01  3.38074154E-01
 -2.37677050E-03 -3.16930067E-02 -1.13317024E-01  5.60900118E-02  5.92255124E-01
  4.55006095E-01 -2.50373114E-01  6.69567631E-02  1.05450627E+00  1.00000000E+00
  1.00000000E+00  1.83107443E-03  1.39501722E-02  6.84450781E-02  2.32714336E-01
  4.70192898E-01  3.58520853E-01 -1.10777550E-01 -1.48026263E-01  1.13076702E+00
  1.00000000E+00  1.00000000E+00  1.83107443E-03  1.39501722E-02  6.84450781E-02
  2.32714336E-01  4.70192898E-01  3.58520853E-01 -1.10777550E-01 -1.48026263E-01
  1.13076702E+00  1.00000000E+00  1.00000000E+00  1.83107443E-03  1.39501722E-02
  6.84450781E-02  2.32714336E-01  4.70192898E-01  3.58520853E-01 -1.10777550E-01
 -1.48026263E-01  1.13076702E+00  1.00000000E+00  1.00000000E+00  3.34946043E-02
  2.34726953E-01  8.13757326E-01  1.00000000E+00
P(S=P) Contraction coefficients            R   N=          98
  0.00000000E+00  0.00000000E+00  0.00000000E+00  0.00000000E+00  0.00000000E+00
  0.00000000E+00  6.89990666E-02  3.16423961E-01  7.44308291E-01  1.00000000E+00
  0.00000000E+00  0.00000000E+00  0.00000000E+00  0.00000000E+00  0.00000000E+00
  0.00000000E+00  0.00000000E+00  7.16287242E-02  3.45912103E-01  7.22469956E-01
  1.00000000E+00  0.00000000E+00  0.00000000E+00  0.00000000E+00  0.00000000E+00
  0.00000000E+00  0.00000000E+00  0.00000000E+00  7.16287242E-02  3.45912103E-01
  7.22469956E-01  1.00000000E+00  0.00000000E+00  0.00000000E+00  0.00000000E+00
  0.00000000E+00  0.00000000E+00  0.00000000E+00  0.00000000E+00  7.16287242E-02
  3.45912103E-01  7.22469956E-01  1.00000000E+00  0.00000000E+00  0.00000000E+00
  0.00000000E+00  0.00000000E+00  0.00000000E+00  0.00000000E+00  0.00000000E+00
  4.06100998E-03  3.06812999E-02  1.30451999E-01  3.27204999E-01  4.52850998E-01
  2.56041999E-01 -1.45104895E-02  3.10262776E-01  7.54482456E-01  1.00000000E+00
  0.00000000E+00  0.00000000E+00  0.00000000E+00  0.00000000E+00  0.00000000E+00
  0.00000000E+00  0.00000000E+00  7.08742682E-02  3.39752839E-01  7.27158577E-01
  1.00000000E+00  0.00000000E+00  0.00000000E+00  0.00000000E+00  0.00000000E+00
  0.00000000E+00  0.00000000E+00  0.00000000E+00  7.08742682E-02  3.39752839E-01
  7.27158577E-01  1.00000000E+00  0.00000000E+00  0.00000000E+00  0.00000000E+00
  0.00000000E+00  0.00000000E+00  0.00000000E+00  0.00000000E+00  7.08742682E-02
  3.39752839E-01  7.27158577E-01  1.00000000E+00  0.00000000E+00  0.00000000E+00
  0.00000000E+00  0.00000000E+00  0.00000000E+00
Coordinates of each shell                  R   N=         105
 -1.87833668E+00  4.27811479E-02  2.08769933E-02 -1.87833668E+00  4.27811479E-02
  2.08769933E-02 -1.87833668E+00  4.27811479E-02  2.08769933E-02 -1.87833668E+00
  4.27811479E-02  2.08769933E-02 -2.83221509E+00 -3.55969094E-01 -2.37723292E+00
 -2.83221509E+00 -3.55969094E-01 -2.37723292E+00 -2.83221509E+00 -3.55969094E-01
 -2.37723292E+00 -2.83221509E+00 -3.55969094E-01 -2.37723292E+00 -2.68115757E+00
  2.37657901E+00  7.57930754E-01 -2.68115757E+00  2.37657901E+00  7.57930754E-01
 -2.68115757E+00  2.37657901E+00  7.57930754E-01 -2.68115757E+00  2.37657901E+00
  7.57930754E-01 -3.11616993E+00 -1.68054046E+00  1.55590349E+00 -3.11616993E+00
 -1.68054046E+00  1.55590349E+00 -3.11616993E+00 -1.68054046E+00  1.55590349E+00
 -3.11616993E+00 -1.68054046E+00  1.55590349E+00  1.59599658E+00 -3.30643283E-01
  1.51239267E-01  1.59599658E+00 -3.30643283E-01  1.51239267E-01  1.59599658E+00
 -3.30643283E-01  1.51239267E-01  1.59599658E+00 -3.30643283E-01  1.51239267E-01
  1.59599658E+00 -3.30643283E-01  1.51239267E-01  2.59765774E+00  4.00654390E-01
  2.61124800E+00  2.59765774E+00  4.00654390E-01  2.61124800E+00  2.59765774E+00
  4.00654390E-01  2.61124800E+00  2.59765774E+00  4.00654390E-01  2.61124800E+00
  2.41649262E+00 -2.58239044E+00 -1.05781205E+00  2.41649262E+00 -2.58239044E+00
 -1.05781205E+00  2.41649262E+00 -2.58239044E+00 -1.05781205E+00  2.41649262E+00
 -2.58239044E+00 -1.05781205E+00  2.45934310E+00  2.00681660E+00 -1.72509918E+00
  2.45934310E+00  2.00681660E+00 -1.72509918E+00  2.45934310E+00  2.00681660E+00
 -1.72509918E+00  2.45934310E+00  2.00681660E+00 -1.72509918E+00  3.61201040E+00
  3.37233615E+00 -6.01196310E-01  3.61201040E+00  3.37233615E+00 -6.01196310E-01
Num ILSW                                   I              100
ILSW                                       I   N=         100
           0           1           0           0           2           0
           0           0           0           0         402          -1
           5           0           0           0           0           0
           0           0           1           0           0           0
           1           0           0           0           0           0
           0           0      100000           0          -1           0
           0           0           0           0           0           0
           0           0           0           1           0           0
           0 -2000000000           1           0           0           0
           0           0           4          52           0           0
           0           0           5           0           0           0
           0           0           0           0           0           1
           0           0           0           0           0           0
           0           0           0           0           0           0
           0           0           0           0           0           0
           0           0           0           0           0           0
           0           0           0           0
Num RLSW                                   I               52
RLSW                                       R   N=          52
  8.00000000E-01  7.20000000E-01  1.00000000E+00  8.10000000E-01  2.00000000E-01
  0.00000000E+00  0.00000000E+00  1.00000000E+00  0.00000000E+00  0.00000000E+00
  0.00000000E+00  0.00000000E+00  1.00000000E+00  0.00000000E+00  0.00000000E+00
  0.00000000E+00  0.00000000E+00  1.00000000E+00  0.00000000E+00  0.00000000E+00
  0.00000000E+00  0.00000000E+00  1.00000000E+00  0.00000000E+00  0.00000000E+00
  0.00000000E+00  0.00000000E+00  1.00000000E+00  0.00000000E+00  0.00000000E+00
  0.00000000E+00  0.00000000E+00  1.00000000E+00  0.00000000E+00  0.00000000E+00
  0.00000000E+00  0.00000000E+00  0.00000000E+00  1.00000000E+00  1.00000000E+00
  0.00000000E+00  1.00000000E+00  0.00000000E+00  0.00000000E+00  0.00000000E+00
  0.00000000E+00  0.00000000E+00  0.00000000E+00  0.00000000E+00  0.00000000E+00
  0.00000000E+00  0.00000000E+00
MxBond                                     I                4
NBond                                      I   N=           9
           4           1           1           1           4           1
           1           2           1
IBond                                      I   N=          36
           2           3           4           5           1           0
           0           0           1           0           0           0
           1           0           0           0           1           6
           7           8           5           0           0           0
           5           0           0           0           5           9
           0           0           8           0           0           0
RBond                                      R   N=          36
  1.00000000E+00  1.00000000E+00  1.00000000E+00  1.00000000E+00  1.00000000E+00
  0.00000000E+00  0.00000000E+00  0.00000000E+00  1.00000000E+00  0.00000000E+00
  0.00000000E+00  0.00000000E+00  1.00000000E+00  0.00000000E+00  0.00000000E+00
  0.00000000E+00  1.00000000E+00  2.00000000E+00  2.00000000E+00  1.00000000E+00
  2.00000000E+00  0.00000000E+00  0.00000000E+00  0.00000000E+00  2.00000000E+00
  0.00000000E+00  0.00000000E+00  0.00000000E+00  1.00000000E+00  1.00000000E+00
  0.00000000E+00  0.00000000E+00  1.00000000E+00  0.00000000E+00  0.00000000E+00
  0.00000000E+00
Virial Ratio                               R      2.006343386737077E+00
SCF Energy                                 R     -9.619708864036241E+02
Total Energy                               R     -9.619708864036241E+02
RMS Density                                R      6.796810311185047E-09
Job Status                                 I                1
Nuclear derivative order                   I                0
External E-field                           R   N=          35
  0.00000000E+00  0.00000000E+00  0.00000000E+00  0.00000000E+00  0.00000000E+00
  0.00000000E+00  0.00000000E+00  0.00000000E+00  0.00000000E+00  0.00000000E+00
  0.00000000E+00  0.00000000E+00  0.00000000E+00  0.00000000E+00  0.00000000E+00
  0.00000000E+00  0.00000000E+00  0.00000000E+00  0.00000000E+00  0.00000000E+00
  0.00000000E+00  0.00000000E+00  0.00000000E+00  0.00000000E+00  0.00000000E+00
  0.00000000E+00  0.00000000E+00  0.00000000E+00  0.00000000E+00  0.00000000E+00
  0.00000000E+00  0.00000000E+00  0.00000000E+00  0.00000000E+00  0.00000000E+00
IOpCl                                      I                0
IROHF                                      I                0
Alpha Orbital Energies                     R   N=         126
 -8.91736097E+01 -2.47765066E+01 -2.47683000E+01 -2.47676821E+01 -1.92427926E+01
 -1.92018236E+01 -1.91942147E+01 -1.05001571E+01 -8.19916696E+00 -6.16452035E+00
 -6.16255092E+00 -6.16250831E+00 -1.33273178E+00 -1.25304511E+00 -1.24421915E+00
 -1.18722080E+00 -1.06680643E+00 -1.04654975E+00 -7.94019760E-01 -6.88072438E-01
 -6.22305881E-01 -6.16095934E-01 -6.06291787E-01 -5.53237822E-01 -5.11926443E-01
 -4.93896942E-01 -4.91888659E-01 -4.89521124E-01 -4.68114483E-01 -4.58199910E-01
 -4.53981002E-01 -4.36347773E-01 -4.02292927E-01 -3.80708138E-01 -3.69226173E-01
 -3.60631351E-01 -3.42554982E-01 -3.76288946E-02 -1.87270084E-02  1.69079540E-02
  3.01544418E-02  9.29919149E-02  1.29752838E-01  1.51158305E-01  1.88469627E-01
  2.84745540E-01  3.13180641E-01  3.41570812E-01  3.91171936E-01  4.58869125E-01
  4.89746654E-01  5.14181553E-01  6.45975324E-01  6.76319578E-01  6.99047898E-01
  7.54557225E-01  7.82221524E-01  7.99229894E-01  8.64277508E-01  8.77917244E-01
  9.29556269E-01  9.68561591E-01  9.85881357E-01  9.99437908E-01  1.01231457E+00
  1.02167227E+00  1.08002811E+00  1.10125247E+00  1.10562938E+00  1.11982049E+00
  1.16571641E+00  1.17957091E+00  1.18480812E+00  1.27326276E+00  1.29022540E+00
  1.32175051E+00  1.34345412E+00  1.34530737E+00  1.36191734E+00  1.37701755E+00
  1.51741916E+00  1.54990462E+00  1.58598358E+00  1.60087524E+00  1.67604863E+00
  1.71500373E+00  1.73916305E+00  1.75167434E+00  1.76852402E+00  1.77664627E+00
  1.79020475E+00  1.79779298E+00  1.81670210E+00  1.82051807E+00  1.83005654E+00
  1.86823406E+00  1.91250174E+00  1.92962850E+00  1.95068411E+00  2.00055083E+00
  2.00930400E+00  2.02395914E+00  2.07874415E+00  2.11540824E+00  2.14986309E+00
  2.16074644E+00  2.18787987E+00  2.20673356E+00  2.28578638E+00  2.43350914E+00
  2.62044652E+00  2.63946206E+00  2.64242716E+00  2.73495871E+00  2.80198227E+00
  2.88694931E+00  3.00609845E+00  3.01490167E+00  3.56483777E+00  3.82880929E+00
  3.86586297E+00  3.93489977E+00  4.28239033E+00  4.30400251E+00  4.38113152E+00
  5.06934864E+00
Alpha MO coefficients                      R   N=       15876
 -2.55746431E-05 -6.91200673E-05  5.02301971E-05 -2.65257558E-06  3.10956970E-06
  8.35807181E-04  3.87863120E-04 -6.78749612E-05 -3.89516611E-06 -4.51251799E-05
 -5.15979036E-06 -3.90036126E-06  1.10288687E-05 -2.18122330E-06 -6.73497876E-08
  1.81651314E-05  1.10026269E-04  1.11815924E-05 -4.00570482E-06 -4.11290917E-06
 -4.11258834E-04 -1.34809123E-04  1.07152348E-05 -6.01412925E-05  6.04899564E-05
  5.16210946E-05  6.91006000E-05 -5.42110759E-06 -2.87538252E-05  9.54448571E-06
  1.63907058E-05  9.83728811E-05  1.28275492E-05  4.41267540E-06  2.15343487E-06
 -3.63809283E-04 -1.32471065E-04  5.36855673E-05  9.58668300E-06  5.56498900E-05
  6.19901996E-05  4.64928590E-05  2.83546358E-05  1.02745695E-05  8.72464057E-06
  2.00131816E-05  1.19590798E-04  1.29901002E-05 -6.25320690E-06  3.11536531E-06
 -4.37896572E-04 -1.50028790E-04 -2.14120324E-05  3.49644380E-05  6.04953535E-05
  7.59795428E-05  6.70549104E-05 -1.98036833E-05  1.83204471E-05 -1.45468520E-05
  9.96122887E-01  1.48657619E-02 -1.25867120E-05  2.11773970E-05 -1.62812452E-05
 -2.41384355E-02  8.75387288E-05 -6.00270224E-05  3.31005088E-05  1.50831022E-03
 -1.82171035E-05 -4.55157913E-05  6.50905807E-05  8.49699314E-03  8.59251430E-03
  8.61615063E-03 -1.07745699E-05  8.09619322E-06  4.32746856E-05  1.46919847E-05
 -1.43129463E-06  3.45865261E-05  3.53140628E-05  1.14825535E-04  4.16351196E-04
 -6.52079567E-05 -7.79301688E-05 -2.82403205E-04  1.06246744E-05  3.83950229E-05
 -1.58699800E-04 -3.10807415E-05 -1.11955687E-04 -7.22281877E-05  1.35818469E-05
 -2.68108308E-05  3.70470721E-05 -1.34250819E-04 -7.15541381E-05  4.65041458E-04
 -5.31395416E-05  2.77486488E-04  1.37419714E-04  2.21197232E-05 -1.32434856E-04
  4.41565800E-06  8.97305587E-05  4.65090471E-05 -1.17633918E-04 -1.35897007E-05
 -2.42698438E-05 -2.27453898E-05 -1.36655309E-05 -1.02742342E-05  6.09478497E-04
  5.73146405E-06 -1.78957735E-04  2.44753625E-04 -5.20904181E-05 -1.04889310E-04
 -8.29529041E-05 -1.81507291E-05  4.68495419E-05  9.18982683E-05 -7.64071280E-05
 -9.92080576E-05 -3.25574884E-05  2.48955676E-05 -2.99358299E-04  5.71385815E-04
  1.71436793E-04  3.96202407E-04  5.20174516E-04 -7.63164014E-05  6.26990612E-05
  6.38866328E-05  4.43612776E-04  6.72963733E-05 -1.89555846E-04 -6.70042432E-05
  1.47014721E-04  8.99824082E-05  4.35420581E-05  2.18085373E-06  1.44642423E-05
  1.24585609E-05  2.57102530E-05 -2.34133668E-05 -1.13681174E-04 -8.88704571E-05
  2.54846906E-05 -6.68973742E-05 -5.80856870E-05  7.62454295E-06 -2.37113713E-05
 -9.42444965E-05  9.93011707E-01  1.97309552E-02  2.54497558E-04 -6.86641915E-04
 -2.14292335E-04  1.47105339E-02 -1.45847052E-04  5.00776935E-04  1.49828616E-04
 -7.96773545E-03 -8.35239204E-03 -7.99709402E-03  1.72312678E-04  5.67677169E-05
 -1.39593902E-04  9.97411873E-05  8.16687804E-05  6.20921161E-06  2.07990693E-05
 -8.07067371E-07 -1.11695207E-04 -5.07548264E-05 -1.63875773E-04  3.14740676E-06
  4.28118445E-05 -1.17908139E-04  5.02878515E-05 -2.25710294E-05  2.53038087E-05
  1.85651188E-05  3.43716106E-06  5.55604024E-05  5.64239634E-06  1.28876251E-06
  1.25124379E-06  2.42344169E-04 -8.87048494E-05  1.12438150E-05 -3.34505080E-05
 -1.53220488E-03  4.81635736E-04 -8.34689418E-04 -2.13188409E-04  2.73182238E-05
  3.92122204E-05  1.74340096E-05 -6.89307528E-06  1.75737800E-07 -2.37417240E-06
 -4.40660997E-05 -1.97342330E-04  2.35245228E-05 -1.86363220E-05  1.78483805E-05
  1.02057663E-03 -2.09730627E-04  1.04123976E-04 -2.21102098E-04 -1.14238738E-04
 -1.38548514E-04 -1.17108714E-04 -7.73543687E-06  2.54452344E-05 -2.33715143E-05
  1.47026386E-05  5.28778464E-05  9.58615928E-06 -7.41139574E-06  8.27832659E-06
 -2.94039388E-04 -4.07736258E-05  4.29284600E-05 -3.96731635E-05  4.26394663E-05
  5.34425127E-05  4.24629976E-05 -1.49384044E-06  2.88625438E-06 -4.38449979E-06
 -2.76293667E-05 -1.42552812E-04  8.43213193E-06  1.52966902E-05 -1.32851661E-05
  7.29495945E-04 -1.49601833E-04 -1.32625290E-04  1.91294421E-04 -7.01114203E-05
 -8.79665690E-05 -4.73602709E-05  1.05017413E-05 -1.73689688E-05 -2.50198860E-06
 -2.70046847E-05  1.32117479E-04 -2.48866616E-05 -2.06585727E-05 -3.66389745E-04
 -3.73499343E-04  3.42103572E-04  1.28288041E-04  4.30442406E-04  8.72834428E-05
 -1.01886838E-04  1.69860095E-04  2.84666992E-04  2.38103383E-04  2.19063483E-04
 -1.94624844E-04 -2.29551413E-04  1.20186247E-03  8.88435533E-05 -1.81431184E-06
 -6.45638249E-06  1.98236480E-05 -4.52831531E-05  2.70409038E-06  5.74078417E-05
 -1.36719469E-04  2.73191458E-05  4.06190627E-06 -1.08806611E-04 -2.62067622E-05
  1.67295579E-06  6.53231823E-05 -9.45482877E-05  6.57799293E-05 -2.07211523E-06
 -1.97016690E-05  3.05239331E-06 -6.85918104E-05  2.55239747E-06  1.45519795E-04
 -3.41712601E-05  3.99884026E-05 -1.11105574E-04  2.61761813E-05 -9.37449558E-06
  2.89392272E-05  4.26103468E-05  9.93012840E-01  1.97023889E-02  3.72204585E-04
  4.75550119E-04 -4.20763581E-04  1.48171047E-02 -2.14242746E-04 -3.13716544E-04
  2.76898998E-04 -8.04051842E-03 -8.15394002E-03 -8.11430655E-03 -1.78358187E-04
  1.57171026E-04  2.04345424E-04  1.53306631E-06  3.03939469E-05  7.82081060E-06
 -1.15665481E-06  2.08097102E-07  1.13144472E-04 -1.11883175E-04  1.73237225E-05
 -8.70255064E-07 -1.11167208E-03  5.04736613E-04  1.85987147E-04 -1.76166472E-04
  1.42169277E-05  3.11878981E-05  2.35831269E-05 -1.23238372E-06 -2.13673778E-06
 -2.79301668E-05 -2.82881980E-05 -1.22137058E-04  2.87625309E-05  1.48500529E-05
  5.11014807E-06  5.90048411E-04 -1.81325976E-04 -9.80113573E-05 -9.31964997E-05
 -7.59855714E-05 -8.10376434E-05 -8.77210816E-05  1.42881789E-05  2.02294096E-05
  8.01420134E-06 -2.93609333E-05 -1.26440027E-04  2.96168913E-05 -2.30418725E-06
 -1.81849231E-05  6.15055169E-04 -1.80242396E-04  8.04812265E-05  1.29651205E-04
 -8.22399695E-05 -9.14270120E-05 -8.04212184E-05 -1.79115532E-05 -1.80370034E-05
  8.52672459E-06 -1.48478235E-07 -1.79169045E-06  1.12272948E-05 -4.00704187E-06
  8.25845612E-07  2.87825229E-05 -6.39006806E-05 -3.93890251E-06  1.34271409E-05
  1.05719219E-08 -3.42519126E-07  2.42843703E-06  6.19689118E-06 -5.09099553E-06
  4.48879681E-06  4.13991748E-06 -1.46184276E-05 -3.05693703E-05 -3.20509004E-05
 -3.11297842E-04 -7.40104409E-05 -5.44365004E-04  3.00009391E-04  4.74377321E-04
 -8.71444778E-05  5.19494661E-05  1.06121746E-04  5.60874412E-05  4.94870335E-04
  4.74094998E-05  2.38730173E-04  8.20643886E-05  9.93013826E-01  1.97185216E-02
  2.84419473E-04  1.13044765E-04  6.75699028E-04  1.47341735E-02 -1.58187898E-04
 -7.31772768E-05 -4.76621284E-04 -7.98556924E-03 -7.96694193E-03 -8.34909462E-03
 -3.52956801E-05 -1.97643311E-04 -7.14130865E-05 -9.61200684E-05  3.83584755E-05
 -1.82378777E-07 -1.15172545E-05 -1.66413028E-05  3.34928175E-05 -7.15883791E-06
  7.42779429E-05  1.24860563E-04  2.79382066E-05 -3.83535882E-05 -8.63403124E-05
  1.74823396E-05 -1.78522090E-05 -8.82343882E-05 -1.19681104E-03  5.48302595E-05
  4.11066121E-06  3.17492365E-06 -2.05820810E-05 -1.24237846E-04 -3.58129776E-05
 -2.14250460E-05  1.60598828E-04  5.32591754E-05  5.57258884E-05 -9.90977384E-05
 -2.51963198E-05  8.61672832E-06  4.33844826E-05  2.83953368E-06  5.00170397E-05
  6.70323609E-06 -7.10842874E-07 -3.55183992E-06  2.04155812E-04 -9.39398624E-05
  3.12306727E-05  1.52399409E-05 -1.37550981E-03  5.29058971E-04  1.21119548E-05
  7.36622160E-04  2.92797989E-05  2.76514025E-05  3.73675223E-05 -6.32180331E-06
  6.42466093E-06 -5.81370707E-06  1.49738808E-05  5.49444371E-05  1.13311587E-05
 -9.14305581E-06  8.31145659E-08 -2.94859420E-04 -4.73738796E-05  4.70565726E-05
 -8.02352589E-06  4.59498322E-05  4.53545144E-05  4.91549760E-05 -3.00144425E-06
  2.07364838E-06 -6.27572919E-06 -3.81831457E-05 -1.74577992E-04  1.73357481E-05
 -1.90645504E-05  1.52893830E-05  9.04480454E-04 -1.80765125E-04  2.16138179E-04
 -6.33308532E-05 -9.94903889E-05 -9.23174539E-05 -1.24909600E-04 -2.26213336E-05
 -8.25225262E-07 -1.93070209E-05 -3.46714386E-05 -1.59943486E-04  8.98724788E-06
  2.17278707E-05  2.24640504E-07  8.03281848E-04 -1.37286479E-04 -2.14458680E-04
  3.83572561E-05 -9.43649973E-05 -7.80035642E-05 -1.12981489E-04  2.38183250E-05
 -6.90553674E-06  7.85488921E-06 -1.08221146E-05  1.31917023E-05 -2.24031307E-05
 -1.49579424E-04  2.87028790E-05  4.58542391E-06  2.04984850E-05  1.05920404E-03
  4.52949584E-04 -6.85352407E-04  2.23429962E-05  5.21400398E-05 -2.95407393E-05
 -2.10613584E-06  3.36966626E-05 -1.45316216E-05 -3.02515175E-05 -3.40404372E-05
 -1.78399102E-04 -3.52781447E-05 -1.29464332E-05  2.14816975E-06  4.98077858E-04
  1.20174287E-04  1.11594229E-04 -3.90105683E-05 -9.23674852E-05 -1.59490535E-04
 -1.63589494E-04  9.91884922E-06 -7.48442865E-06  3.23841663E-05 -4.78607497E-05
 -2.77243576E-04 -1.41309173E-05  1.16801341E-05  4.83550662E-06  9.64735331E-04
  9.93845137E-05 -9.97837605E-05 -7.83404220E-05 -1.55949797E-04 -1.84641713E-04
 -1.93428117E-04 -6.53254281E-06 -1.18308553E-05  1.43108196E-05  4.94061629E-05
  2.78600363E-04  3.33435389E-05  3.96673260E-06 -2.12330047E-05 -9.98767121E-04