 Entering Gaussian System, Link 0=g16
 Input=PFMS_1000K_step0020.gjf
 Output=PFMS_1000K_step0020.log
 Initial command:
 /apps/easybuild-2022/easybuild/software/Compiler/NVHPC/22.11-CUDA-11.7.0/Gaussian/g16c01-CUDA-11.7.0/g16/l1.exe "/tmp/Gau-268429.inp" -scrdir="/tmp/"
 Default is to use a total of   4 processors:
                                4 via shared-memory
                                1 via Linda
 Entering Link 1 = /apps/easybuild-2022/easybuild/software/Compiler/NVHPC/22.11-CUDA-11.7.0/Gaussian/g16c01-CUDA-11.7.0/g16/l1.exe PID=    268430.
  
 Copyright (c) 1988-2019, Gaussian, Inc.  All Rights Reserved.
  
 This is part of the Gaussian(R) 16 program.  It is based on
 the Gaussian(R) 09 system (copyright 2009, Gaussian, Inc.),
 the Gaussian(R) 03 system (copyright 2003, Gaussian, Inc.),
 the Gaussian(R) 98 system (copyright 1998, Gaussian, Inc.),
 the Gaussian(R) 94 system (copyright 1995, Gaussian, Inc.),
 the Gaussian 92(TM) system (copyright 1992, Gaussian, Inc.),
 the Gaussian 90(TM) system (copyright 1990, Gaussian, Inc.),
 the Gaussian 88(TM) system (copyright 1988, Gaussian, Inc.),
 the Gaussian 86(TM) system (copyright 1986, Carnegie Mellon
 University), and the Gaussian 82(TM) system (copyright 1983,
 Carnegie Mellon University). Gaussian is a federally registered
 trademark of Gaussian, Inc.
  
 This software contains proprietary and confidential information,
 including trade secrets, belonging to Gaussian, Inc.
  
 This software is provided under written license and may be
 used, copied, transmitted, or stored only in accord with that
 written license.
  
 The following legend is applicable only to US Government
 contracts under FAR:
  
                    RESTRICTED RIGHTS LEGEND
  
 Use, reproduction and disclosure by the US Government is
 subject to restrictions as set forth in subparagraphs (a)
 and (c) of the Commercial Computer Software - Restricted
 Rights clause in FAR 52.227-19.
  
 Gaussian, Inc.
 340 Quinnipiac St., Bldg. 40, Wallingford CT 06492
  
  
 ---------------------------------------------------------------
 Warning -- This program may not be used in any manner that
 competes with the business of Gaussian, Inc. or will provide
 assistance to any competitor of Gaussian, Inc.  The licensee
 of this program is prohibited from giving any competitor of
 Gaussian, Inc. access to this program.  By using this program,
 the user acknowledges that Gaussian, Inc. is engaged in the
 business of creating and licensing software in the field of
 computational chemistry and represents and warrants to the
 licensee that it is not a competitor of Gaussian, Inc. and that
 it will not use this program in any manner prohibited above.
 ---------------------------------------------------------------
  

 Cite this work as:
 Gaussian 16, Revision C.01,
 M. J. Frisch, G. W. Trucks, H. B. Schlegel, G. E. Scuseria, 
 M. A. Robb, J. R. Cheeseman, G. Scalmani, V. Barone, 
 G. A. Petersson, H. Nakatsuji, X. Li, M. Caricato, A. V. Marenich, 
 J. Bloino, B. G. Janesko, R. Gomperts, B. Mennucci, H. P. Hratchian, 
 J. V. Ortiz, A. F. Izmaylov, J. L. Sonnenberg, D. Williams-Young, 
 F. Ding, F. Lipparini, F. Egidi, J. Goings, B. Peng, A. Petrone, 
 T. Henderson, D. Ranasinghe, V. G. Zakrzewski, J. Gao, N. Rega, 
 G. Zheng, W. Liang, M. Hada, M. Ehara, K. Toyota, R. Fukuda, 
 J. Hasegawa, M. Ishida, T. Nakajima, Y. Honda, O. Kitao, H. Nakai, 
 T. Vreven, K. Throssell, J. A. Montgomery, Jr., J. E. Peralta, 
 F. Ogliaro, M. J. Bearpark, J. J. Heyd, E. N. Brothers, K. N. Kudin, 
 V. N. Staroverov, T. A. Keith, R. Kobayashi, J. Normand, 
 K. Raghavachari, A. P. Rendell, J. C. Burant, S. S. Iyengar, 
 J. Tomasi, M. Cossi, J. M. Millam, M. Klene, C. Adamo, R. Cammi, 
 J. W. Ochterski, R. L. Martin, K. Morokuma, O. Farkas, 
 J. B. Foresman, and D. J. Fox, Gaussian, Inc., Wallingford CT, 2019.
 
 ******************************************
 Gaussian 16:  ES64L-G16RevC.01  3-Jul-2019
                20-Mar-2025 
 ******************************************
 %chk=PFMS_1000K_step0020.chk
 %mem=8GB
 %nprocshared=4
 Will use up to    4 processors via shared memory.
 -----------------------------------------
 # B3LYP/6-31G(d) pop=full density=current
 -----------------------------------------
 1/30=1,38=1,172=1/1;
 2/12=2,17=6,18=5,40=1/2;
 3/5=1,6=6,7=1,11=2,25=1,30=1,74=-5/1,2,3;
 4//1;
 5/5=2,38=5/2;
 6/7=3,22=-1,28=1/1;
 99/5=1,9=1/99;
 -----------------
 PFMS Time step 20
 -----------------
 Symbolic Z-matrix:
 Charge =  0 Multiplicity = 1
 C                    -0.9159    0.01221  -0.23168 
 F                    -1.06172   0.16976  -1.61206 
 F                    -1.57117   1.0488    0.35562 
 F                    -1.6649   -1.13881   0.06363 
 S                     0.85332  -0.16522   0.26708 
 O                     1.00529  -0.17385   1.72203 
 O                     1.54753  -1.06662  -0.54111 
 O                     1.42064   1.34601  -0.17519 
 H                     1.79035   1.91794   0.8097 
 
                          Input orientation:                          
 ---------------------------------------------------------------------
 Center     Atomic      Atomic             Coordinates (Angstroms)
 Number     Number       Type             X           Y           Z
 ---------------------------------------------------------------------
      1          6           0       -0.915901    0.012208   -0.231681
      2          9           0       -1.061720    0.169755   -1.612062
      3          9           0       -1.571168    1.048802    0.355623
      4          9           0       -1.664902   -1.138809    0.063629
      5         16           0        0.853320   -0.165224    0.267075
      6          8           0        1.005293   -0.173854    1.722034
      7          8           0        1.547534   -1.066620   -0.541112
      8          8           0        1.420636    1.346010   -0.175185
      9          1           0        1.790353    1.917944    0.809695
 ---------------------------------------------------------------------
                    Distance matrix (angstroms):
                    1          2          3          4          5
     1  C    0.000000
     2  F    1.396974   0.000000
     3  F    1.359716   2.214508   0.000000
     4  F    1.404653   2.210002   2.209002   0.000000
     5  S    1.846722   2.703839   2.712903   2.707527   0.000000
     6  O    2.746381   3.937868   3.162296   3.288067   1.462900
     7  O    2.707052   3.079572   3.873686   3.269659   1.395569
     8  O    2.691027   3.100046   3.053028   3.968867   1.673699
     9  H    3.469885   4.129817   3.501630   4.673237   2.347777
                    6          7          8          9
     6  O    0.000000
     7  O    2.492566   0.000000
     8  O    2.466158   2.443520   0.000000
     9  H    2.413359   3.285006   1.197409   0.000000
 Stoichiometry    CHF3O3S
 Framework group  C1[X(CHF3O3S)]
 Deg. of freedom    21
 Full point group                 C1      NOp   1
 Largest Abelian subgroup         C1      NOp   1
 Largest concise Abelian subgroup C1      NOp   1
                         Standard orientation:                         
 ---------------------------------------------------------------------
 Center     Atomic      Atomic             Coordinates (Angstroms)
 Number     Number       Type             X           Y           Z
 ---------------------------------------------------------------------
      1          6           0       -0.987159    0.039593    0.017654
      2          9           0       -1.500005   -0.095686   -1.274718
      3          9           0       -1.419992    1.238556    0.490910
      4          9           0       -1.666158   -0.940025    0.760863
      5         16           0        0.843729   -0.196029    0.069748
      6          8           0        1.388100    0.099559    1.395026
      7          8           0        1.258181   -1.315940   -0.652502
      8          8           0        1.320376    1.118822   -0.849624
      9          1           0        1.965429    1.853778   -0.158585
 ---------------------------------------------------------------------
 Rotational constants (GHZ):           2.5956211           1.4355530           1.4252205
 Standard basis: 6-31G(d) (6D, 7F)
 There are   126 symmetry adapted cartesian basis functions of A   symmetry.
 There are   126 symmetry adapted basis functions of A   symmetry.
   126 basis functions,   252 primitive gaussians,   126 cartesian basis functions
    37 alpha electrons       37 beta electrons
       nuclear repulsion energy       552.6263907658 Hartrees.
 NAtoms=    9 NActive=    9 NUniq=    9 SFac= 1.00D+00 NAtFMM=   60 NAOKFM=F Big=F
 Integral buffers will be    131072 words long.
 Raffenetti 2 integral format.
 Two-electron integral symmetry is turned on.
 One-electron integrals computed using PRISM.
 NBasis=   126 RedAO= T EigKep=  2.61D-03  NBF=   126
 NBsUse=   126 1.00D-06 EigRej= -1.00D+00 NBFU=   126
 ExpMin= 1.17D-01 ExpMax= 2.19D+04 ExpMxC= 3.30D+03 IAcc=3 IRadAn=         5 AccDes= 0.00D+00
 Harris functional with IExCor=  402 and IRadAn=       5 diagonalized for initial guess.
 HarFok:  IExCor=  402 AccDes= 0.00D+00 IRadAn=         5 IDoV= 1 UseB2=F ITyADJ=14
 ICtDFT=  3500011 ScaDFX=  1.000000  1.000000  1.000000  1.000000
 FoFCou: FMM=F IPFlag=           0 FMFlag=      100000 FMFlg1=           0
         NFxFlg=           0 DoJE=T BraDBF=F KetDBF=T FulRan=T
         wScrn=  0.000000 ICntrl=       500 IOpCl=  0 I1Cent=   200000004 NGrid=           0
         NMat0=    1 NMatS0=      1 NMatT0=    0 NMatD0=    1 NMtDS0=    0 NMtDT0=    0
 Petite list used in FoFCou.
 Keep R1 ints in memory in canonical form, NReq=35818892.
 Requested convergence on RMS density matrix=1.00D-08 within 128 cycles.
 Requested convergence on MAX density matrix=1.00D-06.
 Requested convergence on             energy=1.00D-06.
 No special actions if energy rises.
 Integral accuracy reduced to 1.0D-05 until final iterations.
 Initial convergence to 1.0D-05 achieved.  Increase integral accuracy.
 SCF Done:  E(RB3LYP) =  -961.949511756     A.U. after   14 cycles
            NFock= 14  Conv=0.89D-08     -V/T= 2.0064

 **********************************************************************

            Population analysis using the SCF Density.

 **********************************************************************

 Orbital symmetries:
       Occupied  (A) (A) (A) (A) (A) (A) (A) (A) (A) (A) (A) (A)
                 (A) (A) (A) (A) (A) (A) (A) (A) (A) (A) (A) (A)
                 (A) (A) (A) (A) (A) (A) (A) (A) (A) (A) (A) (A)
                 (A)
       Virtual   (A) (A) (A) (A) (A) (A) (A) (A) (A) (A) (A) (A)
                 (A) (A) (A) (A) (A) (A) (A) (A) (A) (A) (A) (A)
                 (A) (A) (A) (A) (A) (A) (A) (A) (A) (A) (A) (A)
                 (A) (A) (A) (A) (A) (A) (A) (A) (A) (A) (A) (A)
                 (A) (A) (A) (A) (A) (A) (A) (A) (A) (A) (A) (A)
                 (A) (A) (A) (A) (A) (A) (A) (A) (A) (A) (A) (A)
                 (A) (A) (A) (A) (A) (A) (A) (A) (A) (A) (A) (A)
                 (A) (A) (A) (A) (A)
 The electronic state is 1-A.
 Alpha  occ. eigenvalues --  -89.17303 -24.77999 -24.76412 -24.76320 -19.24157
 Alpha  occ. eigenvalues --  -19.20617 -19.19438 -10.50047  -8.19923  -6.16435
 Alpha  occ. eigenvalues --   -6.16275  -6.16253  -1.32778  -1.25117  -1.23528
 Alpha  occ. eigenvalues --   -1.19229  -1.07015  -1.03279  -0.79370  -0.68318
 Alpha  occ. eigenvalues --   -0.61729  -0.61129  -0.59875  -0.55031  -0.51065
 Alpha  occ. eigenvalues --   -0.49426  -0.48925  -0.48520  -0.46473  -0.45656
 Alpha  occ. eigenvalues --   -0.44947  -0.43310  -0.40245  -0.38313  -0.37090
 Alpha  occ. eigenvalues --   -0.35874  -0.34298
 Alpha virt. eigenvalues --   -0.05600  -0.02481   0.00974   0.02146   0.09233
 Alpha virt. eigenvalues --    0.12210   0.14494   0.19048   0.28447   0.31202
 Alpha virt. eigenvalues --    0.34010   0.39540   0.45893   0.49337   0.51655
 Alpha virt. eigenvalues --    0.64478   0.67029   0.69136   0.75381   0.77186
 Alpha virt. eigenvalues --    0.79883   0.86049   0.87570   0.92915   0.96752
 Alpha virt. eigenvalues --    0.98156   0.99954   1.01297   1.02863   1.08156
 Alpha virt. eigenvalues --    1.10008   1.10184   1.12474   1.16825   1.18487
 Alpha virt. eigenvalues --    1.20088   1.27246   1.29017   1.32319   1.34522
 Alpha virt. eigenvalues --    1.34867   1.36073   1.37884   1.52064   1.55057
 Alpha virt. eigenvalues --    1.58243   1.59995   1.68329   1.71467   1.73740
 Alpha virt. eigenvalues --    1.75087   1.76974   1.78125   1.78994   1.79720
 Alpha virt. eigenvalues --    1.81617   1.82248   1.83220   1.86518   1.90871
 Alpha virt. eigenvalues --    1.92641   1.94869   1.98429   1.99948   2.01601
 Alpha virt. eigenvalues --    2.06203   2.09974   2.12942   2.14364   2.18153
 Alpha virt. eigenvalues --    2.18653   2.28784   2.40641   2.60293   2.62814
 Alpha virt. eigenvalues --    2.63798   2.73231   2.81157   2.86782   3.00537
 Alpha virt. eigenvalues --    3.02098   3.55487   3.83783   3.86365   3.93741
 Alpha virt. eigenvalues --    4.26457   4.30463   4.35038   5.07143
     Molecular Orbital Coefficients:
                           1         2         3         4         5
                           O         O         O         O         O
     Eigenvalues --   -89.17303 -24.77999 -24.76412 -24.76320 -19.24157
   1 1   C  1S         -0.00003  -0.00003  -0.00003  -0.00002  -0.00002
   2        2S         -0.00007   0.00004  -0.00009  -0.00008  -0.00016
   3        2PX         0.00005  -0.00030  -0.00030  -0.00035   0.00003
   4        2PY        -0.00000   0.00056  -0.00003  -0.00037   0.00000
   5        2PZ         0.00000   0.00021  -0.00052   0.00030   0.00002
   6        3S          0.00083   0.00039   0.00028   0.00009   0.00106
   7        3PX         0.00038   0.00051   0.00046   0.00040   0.00047
   8        3PY        -0.00010  -0.00012  -0.00011   0.00006  -0.00065
   9        3PZ        -0.00002   0.00004  -0.00000  -0.00008  -0.00002
  10        4XX        -0.00005   0.00006   0.00012   0.00020   0.00005
  11        4YY        -0.00000   0.00041   0.00005   0.00034  -0.00003
  12        4ZZ        -0.00000   0.00008   0.00053   0.00022  -0.00001
  13        4XY         0.00002  -0.00018   0.00003   0.00025   0.00003
  14        4XZ        -0.00000  -0.00008   0.00025  -0.00019  -0.00001
  15        4YZ         0.00000   0.00017   0.00006  -0.00023  -0.00003
  16 2   F  1S          0.00002   0.00006   0.99302  -0.00077  -0.00004
  17        2S          0.00011   0.00005   0.01973   0.00004  -0.00019
  18        2PX         0.00001   0.00000   0.00028  -0.00000  -0.00004
  19        2PY        -0.00000   0.00001   0.00007  -0.00001  -0.00001
  20        2PZ        -0.00000   0.00002   0.00067   0.00002   0.00000
  21        3S         -0.00042  -0.00001   0.01468  -0.00005   0.00052
  22        3PX        -0.00013  -0.00002  -0.00015   0.00002   0.00012
  23        3PY         0.00002  -0.00010  -0.00004   0.00008   0.00010
  24        3PZ        -0.00006  -0.00010  -0.00047  -0.00012  -0.00002
  25        4XX         0.00006   0.00004  -0.00797   0.00004  -0.00010
  26        4YY         0.00005  -0.00005  -0.00795   0.00001  -0.00017
  27        4ZZ         0.00007  -0.00006  -0.00833  -0.00008  -0.00016
  28        4XY        -0.00000   0.00001  -0.00002  -0.00003   0.00001
  29        4XZ        -0.00003  -0.00002  -0.00020   0.00001  -0.00001
  30        4YZ         0.00001  -0.00009  -0.00004   0.00008   0.00003
  31 3   F  1S          0.00002   0.99301  -0.00006  -0.00005  -0.00005
  32        2S          0.00009   0.01973   0.00004   0.00006  -0.00027
  33        2PX         0.00001   0.00026   0.00000  -0.00000  -0.00002
  34        2PY         0.00000  -0.00067  -0.00001  -0.00002   0.00001
  35        2PZ         0.00000  -0.00026  -0.00002   0.00000   0.00001
  36        3S         -0.00033   0.01471   0.00005  -0.00005   0.00095
  37        3PX        -0.00013  -0.00016  -0.00001   0.00001   0.00010
  38        3PY         0.00005   0.00049   0.00006   0.00014  -0.00009
  39        3PZ         0.00001   0.00018   0.00013  -0.00003  -0.00008
  40        4XX         0.00005  -0.00797   0.00003   0.00004  -0.00016
  41        4YY         0.00006  -0.00833  -0.00002  -0.00011  -0.00019
  42        4ZZ         0.00005  -0.00801  -0.00009   0.00003  -0.00019
  43        4XY         0.00003   0.00017   0.00002  -0.00001  -0.00001
  44        4XZ         0.00001   0.00007  -0.00002   0.00003  -0.00001
  45        4YZ         0.00001  -0.00017  -0.00008   0.00003   0.00002
  46 4   F  1S          0.00002   0.00005   0.00078   0.99302   0.00005
  47        2S          0.00012   0.00009   0.00009   0.01971   0.00026
  48        2PX         0.00001   0.00001   0.00000   0.00037   0.00003
  49        2PY        -0.00001   0.00002   0.00000   0.00049   0.00001
  50        2PZ         0.00000  -0.00000  -0.00002  -0.00037  -0.00002
  51        3S         -0.00045  -0.00014  -0.00008   0.01477  -0.00093
  52        3PX        -0.00015  -0.00005  -0.00003  -0.00021  -0.00020
  53        3PY        -0.00002  -0.00016  -0.00002  -0.00032  -0.00007
  54        3PZ         0.00004  -0.00000   0.00016   0.00024   0.00014
  55        4XX         0.00006   0.00005   0.00004  -0.00803   0.00017
  56        4YY         0.00008  -0.00011   0.00004  -0.00816   0.00019
  57        4ZZ         0.00007   0.00006  -0.00011  -0.00807   0.00016
  58        4XY        -0.00002  -0.00002  -0.00002  -0.00019  -0.00003
  59        4XZ         0.00002   0.00002   0.00001   0.00014   0.00003
  60        4YZ        -0.00001   0.00000   0.00005   0.00019   0.00001
  61 5   S  1S          0.99612   0.00000   0.00000   0.00000   0.00000
  62        2S          0.01487   0.00006   0.00005   0.00003   0.00005
  63        2PX        -0.00001   0.00001   0.00001   0.00001  -0.00000
  64        2PY         0.00002   0.00000  -0.00000  -0.00000  -0.00006
  65        2PZ        -0.00002   0.00000  -0.00000  -0.00000   0.00005
  66        3S         -0.02413   0.00023   0.00020   0.00010   0.00004
  67        3PX         0.00009  -0.00009  -0.00009  -0.00012  -0.00011
  68        3PY        -0.00006   0.00002   0.00003   0.00002   0.00018
  69        3PZ         0.00003  -0.00003   0.00002   0.00000  -0.00013
  70        4S          0.00151  -0.00150  -0.00135  -0.00107  -0.00338
  71        4PX        -0.00002   0.00047   0.00052   0.00050   0.00032
  72        4PY        -0.00004  -0.00079  -0.00003   0.00021  -0.00067
  73        4PZ         0.00007  -0.00025   0.00077  -0.00016   0.00129
  74        5XX         0.00849   0.00003   0.00003   0.00002   0.00015
  75        5YY         0.00858   0.00004   0.00003   0.00004   0.00027
  76        5ZZ         0.00862   0.00002   0.00004   0.00002   0.00018
  77        5XY        -0.00001  -0.00001  -0.00001  -0.00000   0.00005
  78        5XZ         0.00001  -0.00000   0.00001  -0.00000  -0.00003
  79        5YZ         0.00005  -0.00000  -0.00001  -0.00003  -0.00019
  80 6   O  1S          0.00001  -0.00004   0.00002  -0.00003  -0.00005
  81        2S          0.00000  -0.00019   0.00006  -0.00012  -0.00005
  82        2PX         0.00003   0.00002   0.00001   0.00003  -0.00001
  83        2PY         0.00003  -0.00002  -0.00001   0.00001  -0.00004
  84        2PZ         0.00011   0.00002  -0.00000   0.00001   0.00001
  85        3S          0.00041   0.00099  -0.00034   0.00056   0.00044
  86        3PX        -0.00007  -0.00021  -0.00004  -0.00018  -0.00005
  87        3PY        -0.00006   0.00012   0.00005  -0.00009   0.00013
  88        3PZ        -0.00029  -0.00021   0.00000  -0.00009  -0.00022
  89        4XX         0.00001  -0.00011   0.00005  -0.00007  -0.00002
  90        4YY         0.00005  -0.00013   0.00005  -0.00008  -0.00007
  91        4ZZ        -0.00016  -0.00012   0.00005  -0.00008  -0.00006
  92        4XY        -0.00002  -0.00001  -0.00000   0.00001  -0.00002
  93        4XZ        -0.00012   0.00002   0.00000   0.00002   0.00002
  94        4YZ        -0.00005  -0.00002  -0.00001   0.00001   0.00004
  95 7   O  1S          0.00001   0.00001  -0.00004  -0.00003  -0.00004
  96        2S         -0.00004   0.00005  -0.00018  -0.00013  -0.00022
  97        2PX         0.00004   0.00001   0.00002   0.00003   0.00002
  98        2PY        -0.00014  -0.00001  -0.00002  -0.00000  -0.00000
  99        2PZ        -0.00009   0.00001   0.00001  -0.00002   0.00003
 100        3S          0.00048  -0.00026   0.00093   0.00062   0.00150
 101        3PX        -0.00005  -0.00004  -0.00018  -0.00018  -0.00021
 102        3PY         0.00027   0.00005   0.00022   0.00007   0.00033
 103        3PZ         0.00016  -0.00004  -0.00005   0.00014  -0.00004
 104        4XX         0.00003   0.00004  -0.00010  -0.00008  -0.00011
 105        4YY        -0.00011   0.00005  -0.00009  -0.00009  -0.00021
 106        4ZZ        -0.00001   0.00004  -0.00013  -0.00008  -0.00016
 107        4XY         0.00008  -0.00000  -0.00002  -0.00002  -0.00005
 108        4XZ         0.00005   0.00000  -0.00000  -0.00002   0.00003
 109        4YZ        -0.00013  -0.00000  -0.00002   0.00001   0.00003
 110 8   O  1S         -0.00001  -0.00003  -0.00003   0.00000   0.99282
 111        2S         -0.00002  -0.00014  -0.00016  -0.00000   0.02574
 112        2PX        -0.00002   0.00001   0.00001   0.00001   0.00016
 113        2PY        -0.00002   0.00002   0.00002  -0.00000  -0.00005
 114        2PZ        -0.00001  -0.00001   0.00000   0.00000   0.00085
 115        3S          0.00057   0.00073   0.00079   0.00002   0.01159
 116        3PX        -0.00001  -0.00015  -0.00014  -0.00007  -0.00031
 117        3PY        -0.00020  -0.00014  -0.00022  -0.00000  -0.00052
 118        3PZ         0.00022   0.00018   0.00002   0.00001   0.00013
 119        4XX        -0.00005  -0.00007  -0.00009   0.00000  -0.00793
 120        4YY        -0.00011  -0.00009  -0.00008  -0.00000  -0.00794
 121        4ZZ        -0.00007  -0.00005  -0.00011   0.00000  -0.00798
 122        4XY        -0.00002   0.00001   0.00002   0.00001   0.00002
 123        4XZ         0.00004  -0.00002  -0.00001  -0.00001  -0.00000
 124        4YZ         0.00007  -0.00001   0.00001   0.00000   0.00002
 125 9   H  1S         -0.00006  -0.00003  -0.00001   0.00000   0.00024
 126        2S         -0.00009   0.00012   0.00001  -0.00001  -0.00071
                           6         7         8         9        10
                           O         O         O         O         O
     Eigenvalues --   -19.20617 -19.19438 -10.50047  -8.19923  -6.16435
   1 1   C  1S         -0.00001  -0.00001   0.99338   0.00002   0.00000
   2        2S         -0.00007  -0.00010   0.04659   0.00074  -0.00018
   3        2PX         0.00002   0.00001  -0.00065  -0.00010  -0.00004
   4        2PY         0.00004  -0.00001   0.00025  -0.00004  -0.00013
   5        2PZ         0.00002  -0.00005   0.00004  -0.00000   0.00007
   6        3S          0.00036   0.00054  -0.01267  -0.00205   0.00003
   7        3PX         0.00022   0.00037  -0.00294  -0.00189  -0.00000
   8        3PY        -0.00042   0.00043   0.00023   0.00085  -0.00154
   9        3PZ        -0.00065   0.00052   0.00012   0.00023   0.00088
  10        4XX         0.00003   0.00004  -0.00828  -0.00066   0.00009
  11        4YY        -0.00003   0.00001  -0.00769  -0.00014   0.00012
  12        4ZZ         0.00002  -0.00003  -0.00782  -0.00017   0.00002
  13        4XY         0.00001  -0.00002  -0.00001   0.00004  -0.00032
  14        4XZ         0.00002  -0.00001  -0.00004  -0.00003   0.00020
  15        4YZ        -0.00000   0.00001   0.00008  -0.00000  -0.00015
  16 2   F  1S         -0.00000   0.00001  -0.00010  -0.00016  -0.00001
  17        2S          0.00001   0.00003  -0.00029  -0.00089  -0.00009
  18        2PX        -0.00003   0.00004   0.00000  -0.00020   0.00001
  19        2PY        -0.00001   0.00000  -0.00000   0.00004  -0.00012
  20        2PZ         0.00002  -0.00001   0.00002  -0.00002   0.00003
  21        3S         -0.00018   0.00001   0.00160   0.00288   0.00042
  22        3PX         0.00006  -0.00012   0.00000   0.00105   0.00004
  23        3PY         0.00002  -0.00003  -0.00005  -0.00020   0.00057
  24        3PZ        -0.00014   0.00008  -0.00049   0.00031  -0.00007
  25        4XX         0.00003   0.00003  -0.00019  -0.00047  -0.00001
  26        4YY        -0.00003   0.00005  -0.00003  -0.00066  -0.00002
  27        4ZZ        -0.00005   0.00006  -0.00086  -0.00063  -0.00008
  28        4XY        -0.00001   0.00000  -0.00001  -0.00001   0.00012
  29        4XZ        -0.00002  -0.00001  -0.00022   0.00020  -0.00002
  30        4YZ         0.00002  -0.00002  -0.00011  -0.00005   0.00007
  31 3   F  1S          0.00001  -0.00001  -0.00009  -0.00012  -0.00005
  32        2S          0.00002  -0.00001  -0.00017  -0.00065  -0.00032
  33        2PX         0.00004  -0.00003   0.00000  -0.00021  -0.00001
  34        2PY         0.00001  -0.00001  -0.00003   0.00002  -0.00005
  35        2PZ        -0.00001   0.00000  -0.00000  -0.00001   0.00011
  36        3S          0.00007  -0.00012   0.00110   0.00189   0.00124
  37        3PX        -0.00011   0.00005  -0.00005   0.00101   0.00015
  38        3PY        -0.00009   0.00011   0.00071  -0.00017   0.00012
  39        3PZ         0.00003   0.00000   0.00025   0.00000  -0.00052
  40        4XX         0.00002   0.00001  -0.00008  -0.00033  -0.00016
  41        4YY         0.00006  -0.00006  -0.00075  -0.00049  -0.00028
  42        4ZZ         0.00004  -0.00004  -0.00005  -0.00053  -0.00016
  43        4XY         0.00001   0.00001   0.00020  -0.00019   0.00003
  44        4XZ        -0.00000   0.00002   0.00007  -0.00006  -0.00011
  45        4YZ        -0.00002   0.00002  -0.00037   0.00000   0.00002
  46 4   F  1S         -0.00003  -0.00003  -0.00010  -0.00013   0.00019
  47        2S         -0.00017  -0.00015  -0.00028  -0.00075   0.00109
  48        2PX        -0.00003  -0.00002  -0.00001  -0.00018   0.00013
  49        2PY        -0.00001   0.00001   0.00002   0.00003  -0.00002
  50        2PZ        -0.00001   0.00001  -0.00002   0.00001   0.00000
  51        3S          0.00053   0.00048   0.00147   0.00243  -0.00384
  52        3PX         0.00009   0.00006  -0.00003   0.00099  -0.00085
  53        3PY         0.00008  -0.00003  -0.00045  -0.00001  -0.00009
  54        3PZ         0.00006  -0.00009   0.00031  -0.00019   0.00016
  55        4XX        -0.00011  -0.00010  -0.00024  -0.00033   0.00054
  56        4YY        -0.00011  -0.00016  -0.00054  -0.00059   0.00081
  57        4ZZ        -0.00018  -0.00010  -0.00032  -0.00052   0.00076
  58        4XY        -0.00000  -0.00000  -0.00026   0.00011  -0.00003
  59        4XZ        -0.00001   0.00001   0.00019  -0.00011   0.00005
  60        4YZ         0.00001  -0.00002   0.00043   0.00002  -0.00006
  61 5   S  1S          0.00001   0.00002  -0.00001  -0.27990   0.00057
  62        2S         -0.00007  -0.00004  -0.00019   1.02296  -0.00231
  63        2PX         0.00003   0.00002  -0.00001  -0.00006   0.23851
  64        2PY        -0.00006  -0.00001   0.00000   0.00139   0.79067
  65        2PZ        -0.00003   0.00000   0.00000  -0.00171  -0.54793
  66        3S          0.00088   0.00077  -0.00066   0.07260  -0.00075
  67        3PX        -0.00008  -0.00002  -0.00009   0.00032   0.00710
  68        3PY        -0.00001   0.00010  -0.00007  -0.00016   0.02476
  69        3PZ        -0.00004   0.00021   0.00001  -0.00028  -0.01684
  70        4S         -0.00322  -0.00330   0.00769  -0.00783   0.00172
  71        4PX        -0.00041  -0.00056  -0.00304   0.00166  -0.00194
  72        4PY         0.00180  -0.00115   0.00130  -0.00116  -0.00390
  73        4PZ         0.00184  -0.00206  -0.00052  -0.00009   0.00277
  74        5XX        -0.00024  -0.00014  -0.00012  -0.01523  -0.00042
  75        5YY        -0.00032  -0.00018  -0.00015  -0.01472   0.00063
  76        5ZZ        -0.00027  -0.00009  -0.00008  -0.01465  -0.00017
  77        5XY         0.00005   0.00003   0.00004  -0.00011   0.00080
  78        5XZ         0.00001   0.00003  -0.00000   0.00010  -0.00057
  79        5YZ        -0.00007   0.00002   0.00007   0.00045  -0.00168
  80 6   O  1S         -0.00023   0.99275   0.00006  -0.00009   0.00013
  81        2S          0.00008   0.02570   0.00030   0.00044  -0.00006
  82        2PX        -0.00004  -0.00039  -0.00004   0.00000  -0.00003
  83        2PY         0.00006  -0.00020   0.00003  -0.00013  -0.00000
  84        2PZ        -0.00000  -0.00088  -0.00000  -0.00029   0.00012
  85        3S         -0.00040   0.01262  -0.00176  -0.00331   0.00064
  86        3PX         0.00019  -0.00027   0.00056   0.00055  -0.00046
  87        3PY        -0.00031   0.00001  -0.00017   0.00093  -0.00092
  88        3PZ        -0.00011  -0.00060   0.00042   0.00282  -0.00093
  89        4XX         0.00007  -0.00810   0.00020   0.00028   0.00014
  90        4YY         0.00004  -0.00810   0.00012   0.00022   0.00024
  91        4ZZ         0.00009  -0.00806   0.00014   0.00020  -0.00027
  92        4XY         0.00003  -0.00001  -0.00001   0.00001   0.00028
  93        4XZ         0.00000   0.00002  -0.00006   0.00006   0.00015
  94        4YZ        -0.00001  -0.00001   0.00005  -0.00001   0.00054
  95 7   O  1S          0.99269   0.00026   0.00005  -0.00014   0.00023
  96        2S          0.02569   0.00007   0.00025   0.00077  -0.00009
  97        2PX        -0.00038  -0.00004  -0.00002  -0.00005  -0.00000
  98        2PY         0.00091   0.00002   0.00002   0.00043  -0.00019
  99        2PZ         0.00062  -0.00005  -0.00003   0.00035  -0.00012
 100        3S          0.01328  -0.00023  -0.00153  -0.00510   0.00099
 101        3PX        -0.00026   0.00020   0.00048   0.00051  -0.00043
 102        3PY         0.00066   0.00006  -0.00045  -0.00279   0.00071
 103        3PZ         0.00026   0.00034   0.00002  -0.00204   0.00140
 104        4XX        -0.00823   0.00004   0.00018   0.00037   0.00014
 105        4YY        -0.00810   0.00007   0.00006   0.00046  -0.00051
 106        4ZZ        -0.00820   0.00003   0.00011   0.00037   0.00046
 107        4XY        -0.00006   0.00002   0.00004  -0.00012  -0.00001
 108        4XZ        -0.00003  -0.00003   0.00002  -0.00008  -0.00020
 109        4YZ         0.00009   0.00002   0.00006   0.00015   0.00012
 110 8   O  1S         -0.00006  -0.00001   0.00008   0.00002   0.00006
 111        2S         -0.00012  -0.00015   0.00037   0.00035   0.00117
 112        2PX        -0.00001  -0.00001   0.00000   0.00016   0.00007
 113        2PY         0.00004  -0.00002  -0.00003   0.00009   0.00006
 114        2PZ         0.00004  -0.00005   0.00000   0.00003   0.00008
 115        3S          0.00083   0.00093  -0.00222  -0.00177  -0.00455
 116        3PX         0.00002  -0.00000   0.00036  -0.00013   0.00106
 117        3PY        -0.00034  -0.00005   0.00055   0.00148   0.00324
 118        3PZ        -0.00017   0.00041  -0.00032  -0.00134  -0.00280
 119        4XX        -0.00008  -0.00009   0.00031   0.00029   0.00069
 120        4YY        -0.00014  -0.00011   0.00016  -0.00025  -0.00044
 121        4ZZ        -0.00012  -0.00013   0.00013   0.00007   0.00022
 122        4XY         0.00002  -0.00002  -0.00003  -0.00022  -0.00063
 123        4XZ         0.00003  -0.00004   0.00001   0.00006   0.00032
 124        4YZ        -0.00001  -0.00000  -0.00002   0.00039   0.00093
 125 9   H  1S          0.00002  -0.00005   0.00008   0.00016   0.00031
 126        2S         -0.00008   0.00009  -0.00028   0.00070   0.00065
                          11        12        13        14        15
                           O         O         O         O         O
     Eigenvalues --    -6.16275  -6.16253  -1.32778  -1.25117  -1.23528
   1 1   C  1S          0.00003  -0.00010  -0.09413   0.01253  -0.00111
   2        2S          0.00101  -0.00176   0.19293  -0.02594   0.00234
   3        2PX        -0.00008   0.00006  -0.05627   0.01593  -0.01109
   4        2PY        -0.00006  -0.00002   0.03108   0.12320  -0.05822
   5        2PZ        -0.00006  -0.00003   0.00700   0.06425   0.11739
   6        3S         -0.00297   0.00574   0.01703  -0.00670   0.00050
   7        3PX        -0.00227   0.00344   0.01812  -0.00361   0.00025
   8        3PY        -0.00149  -0.00135  -0.00307  -0.00441  -0.00016
   9        3PZ        -0.00236  -0.00181   0.00031  -0.00369  -0.00202
  10        4XX        -0.00085   0.00112  -0.00907  -0.00151   0.00217
  11        4YY        -0.00020   0.00004   0.00332   0.01549   0.00949
  12        4ZZ         0.00003   0.00016  -0.00264  -0.01304  -0.01181
  13        4XY        -0.00008  -0.00026  -0.00241  -0.01381   0.00845
  14        4XZ        -0.00026  -0.00014  -0.00123  -0.00585  -0.01455
  15        4YZ        -0.00003   0.00004   0.00383   0.01320  -0.01251
  16 2   F  1S          0.00001   0.00030  -0.10364   0.12418   0.15327
  17        2S          0.00008   0.00179   0.22598  -0.27818  -0.34507
  18        2PX        -0.00014   0.00027   0.01860  -0.01934  -0.02498
  19        2PY        -0.00006  -0.00005   0.00764   0.00456  -0.01134
  20        2PZ         0.00000   0.00007   0.05568  -0.04519  -0.04694
  21        3S         -0.00072  -0.00625   0.22618  -0.26546  -0.32669
  22        3PX         0.00055  -0.00172   0.01037  -0.01083  -0.01470
  23        3PY         0.00029   0.00024   0.00586   0.00390  -0.00696
  24        3PZ        -0.00016  -0.00087   0.03907  -0.02594  -0.02552
  25        4XX         0.00008   0.00094   0.00266  -0.00553  -0.00746
  26        4YY        -0.00005   0.00118   0.00067  -0.00336  -0.00515
  27        4ZZ         0.00001   0.00120   0.01484  -0.01234  -0.01378
  28        4XY         0.00006   0.00001   0.00068  -0.00003  -0.00066
  29        4XZ         0.00010  -0.00032   0.00588  -0.00433  -0.00514
  30        4YZ         0.00006   0.00007   0.00210   0.00031  -0.00195
  31 3   F  1S         -0.00027   0.00010  -0.14903  -0.16406   0.01034
  32        2S         -0.00157   0.00057   0.32955   0.37129  -0.02364
  33        2PX        -0.00021   0.00022   0.02373   0.02549  -0.00254
  34        2PY         0.00009  -0.00002  -0.07278  -0.05105  -0.00210
  35        2PZ        -0.00006  -0.00007  -0.02898  -0.01877   0.01268
  36        3S          0.00556  -0.00161   0.31711   0.34495  -0.02123
  37        3PX         0.00135  -0.00112   0.01176   0.01429  -0.00158
  38        3PY        -0.00087   0.00021  -0.04493  -0.02426  -0.00215
  39        3PZ         0.00015   0.00042  -0.01820  -0.00831   0.00831
  40        4XX        -0.00085   0.00028   0.00472   0.00818  -0.00066
  41        4YY        -0.00099   0.00039   0.01778   0.01369   0.00027
  42        4ZZ        -0.00108   0.00041   0.00497   0.00704  -0.00163
  43        4XY        -0.00027   0.00020  -0.00582  -0.00434   0.00023
  44        4XZ        -0.00004   0.00013  -0.00227  -0.00159   0.00051
  45        4YZ        -0.00008  -0.00008   0.00701   0.00319  -0.00153
  46 4   F  1S         -0.00012   0.00017  -0.10057   0.10082  -0.17201
  47        2S         -0.00067   0.00097   0.21873  -0.22567   0.38694
  48        2PX        -0.00017   0.00024   0.02472  -0.02058   0.03396
  49        2PY        -0.00008  -0.00006   0.04204  -0.02066   0.04288
  50        2PZ        -0.00010  -0.00010  -0.03004   0.02816  -0.02595
  51        3S          0.00215  -0.00318   0.22052  -0.21555   0.36700
  52        3PX         0.00094  -0.00133   0.01517  -0.01189   0.01995
  53        3PY         0.00052   0.00014   0.03029  -0.01095   0.02417
  54        3PZ         0.00047   0.00064  -0.02143   0.01754  -0.01355
  55        4XX        -0.00029   0.00045   0.00392  -0.00541   0.00975
  56        4YY        -0.00042   0.00080   0.00860  -0.00560   0.01188
  57        4ZZ        -0.00058   0.00063   0.00469  -0.00625   0.00807
  58        4XY         0.00019  -0.00011   0.00597  -0.00305   0.00549
  59        4XZ         0.00001   0.00022  -0.00442   0.00308  -0.00388
  60        4YZ         0.00004   0.00000  -0.00713   0.00391  -0.00491
  61 5   S  1S         -0.00010  -0.00026   0.00490  -0.00212  -0.00007
  62        2S          0.00023   0.00110  -0.02319   0.00949   0.00039
  63        2PX        -0.50384   0.81942   0.00742  -0.00117   0.00043
  64        2PY         0.58319   0.12860  -0.00054  -0.00389   0.00109
  65        2PZ         0.62254   0.54218   0.00051  -0.00240  -0.00328
  66        3S         -0.00037  -0.00046   0.03648  -0.01902  -0.00031
  67        3PX        -0.01582   0.02581  -0.01741   0.00300  -0.00074
  68        3PY         0.01973   0.00447   0.00147   0.00799  -0.00223
  69        3PZ         0.02081   0.01800  -0.00113   0.00538   0.00711
  70        4S         -0.00249   0.00101   0.01185   0.00190  -0.00004
  71        4PX         0.00250  -0.00381  -0.00454   0.00282  -0.00173
  72        4PY        -0.00151  -0.00005   0.00392   0.01540  -0.00436
  73        4PZ        -0.00075  -0.00136   0.00057   0.01013   0.01285
  74        5XX         0.00085  -0.00067   0.00793  -0.00116   0.00080
  75        5YY        -0.00156   0.00035  -0.00187   0.00095  -0.00054
  76        5ZZ         0.00013   0.00185  -0.00207   0.00057  -0.00032
  77        5XY         0.00065   0.00047  -0.00231  -0.00218   0.00167
  78        5XZ         0.00102   0.00071   0.00034  -0.00128  -0.00289
  79        5YZ        -0.00095   0.00026   0.00110  -0.00094   0.00018
  80 6   O  1S         -0.00021  -0.00020  -0.00417   0.00162  -0.00079
  81        2S          0.00034   0.00110   0.01024  -0.00113   0.00353
  82        2PX        -0.00003  -0.00019  -0.00291   0.00049  -0.00083
  83        2PY         0.00001  -0.00006  -0.00071   0.00100  -0.00061
  84        2PZ        -0.00017  -0.00038  -0.00472   0.00138  -0.00070
  85        3S         -0.00289  -0.00677   0.00292  -0.01339  -0.00636
  86        3PX         0.00136   0.00154   0.00063   0.00025   0.00043
  87        3PY        -0.00017   0.00086  -0.00082  -0.00160   0.00167
  88        3PZ         0.00199   0.00450  -0.00083   0.00278   0.00025
  89        4XX        -0.00019   0.00076   0.00037   0.00091   0.00063
  90        4YY         0.00014   0.00057   0.00034   0.00091   0.00042
  91        4ZZ         0.00026   0.00019   0.00147   0.00051   0.00106
  92        4XY         0.00002   0.00005   0.00014  -0.00010  -0.00002
  93        4XZ        -0.00035   0.00021   0.00050  -0.00017   0.00004
  94        4YZ         0.00036  -0.00009   0.00041   0.00020  -0.00000
  95 7   O  1S          0.00048   0.00015  -0.00539   0.00513   0.00073
  96        2S         -0.00153   0.00007   0.01242  -0.01383  -0.00197
  97        2PX         0.00031   0.00001  -0.00308   0.00261   0.00025
  98        2PY        -0.00080  -0.00011   0.00545  -0.00464  -0.00109
  99        2PZ        -0.00046   0.00000   0.00323  -0.00290   0.00046
 100        3S          0.00941   0.00026   0.00713   0.00334   0.00107
 101        3PX        -0.00172  -0.00076   0.00062   0.00029   0.00073
 102        3PY         0.00498   0.00040   0.00075  -0.00067   0.00163
 103        3PZ         0.00260  -0.00047   0.00100  -0.00005  -0.00207
 104        4XX        -0.00063   0.00039   0.00012  -0.00087  -0.00021
 105        4YY        -0.00073   0.00005   0.00100  -0.00163   0.00010
 106        4ZZ        -0.00077  -0.00012   0.00051  -0.00096  -0.00031
 107        4XY         0.00026  -0.00033  -0.00046   0.00036   0.00014
 108        4XZ         0.00022  -0.00014  -0.00031   0.00013  -0.00004
 109        4YZ        -0.00034  -0.00039   0.00076  -0.00093  -0.00018
 110 8   O  1S         -0.00004   0.00014  -0.00371   0.00100   0.00156
 111        2S         -0.00021   0.00058   0.00835  -0.00180  -0.00413
 112        2PX         0.00011  -0.00002  -0.00177   0.00020   0.00048
 113        2PY         0.00010   0.00008  -0.00241   0.00117   0.00092
 114        2PZ         0.00005   0.00011   0.00246  -0.00014  -0.00048
 115        3S          0.00104  -0.00250   0.00420  -0.00468   0.00183
 116        3PX        -0.00037  -0.00024   0.00006  -0.00045   0.00178
 117        3PY        -0.00110  -0.00025  -0.00017   0.00091  -0.00169
 118        3PZ        -0.00049  -0.00102   0.00061  -0.00236  -0.00054
 119        4XX        -0.00024   0.00066   0.00005   0.00021  -0.00042
 120        4YY         0.00052   0.00055   0.00055   0.00003   0.00010
 121        4ZZ        -0.00064   0.00006   0.00022  -0.00045  -0.00016
 122        4XY        -0.00012   0.00039   0.00019  -0.00013  -0.00024
 123        4XZ         0.00030  -0.00020  -0.00006  -0.00016   0.00006
 124        4YZ         0.00003   0.00032  -0.00050   0.00038   0.00016
 125 9   H  1S          0.00013   0.00024   0.00089   0.00024  -0.00046
 126        2S          0.00049   0.00098  -0.00060  -0.00233   0.00043
                          16        17        18        19        20
                           O         O         O         O         O
     Eigenvalues --    -1.19229  -1.07015  -1.03279  -0.79370  -0.68318
   1 1   C  1S         -0.00592   0.00290  -0.00116  -0.13278   0.08387
   2        2S          0.00087  -0.00340   0.00175   0.30743  -0.20734
   3        2PX         0.03509  -0.00865   0.00395   0.15633   0.22746
   4        2PY        -0.00207  -0.00126   0.00213  -0.01376  -0.04184
   5        2PZ         0.00273  -0.00200  -0.00328   0.00559  -0.00932
   6        3S          0.05071  -0.01431   0.00537   0.23016  -0.12107
   7        3PX         0.02202  -0.00613   0.00234   0.08963   0.00661
   8        3PY        -0.00044  -0.00449   0.00515  -0.01224  -0.00459
   9        3PZ         0.00145  -0.00332  -0.00399   0.00020  -0.00426
  10        4XX         0.00704  -0.00122   0.00017   0.00647   0.01200
  11        4YY        -0.00201   0.00145   0.00011  -0.01124   0.00001
  12        4ZZ        -0.00311   0.00001  -0.00073  -0.01197   0.00279
  13        4XY        -0.00140  -0.00082   0.00125  -0.00252   0.00125
  14        4XZ        -0.00005  -0.00074  -0.00134   0.00044   0.00061
  15        4YZ         0.00026   0.00054  -0.00072   0.00014  -0.00166
  16 2   F  1S          0.01554   0.00147   0.00332   0.04843  -0.04018
  17        2S         -0.03562  -0.00525  -0.01018  -0.10654   0.08675
  18        2PX         0.00166   0.00001   0.00180   0.07701  -0.00090
  19        2PY        -0.00082  -0.00067   0.00075   0.00590  -0.03346
  20        2PZ        -0.00496   0.00000  -0.00001   0.09477  -0.20519
  21        3S         -0.03555   0.00028  -0.00403  -0.14956   0.13039
  22        3PX         0.00035   0.00219   0.00335   0.04070   0.00439
  23        3PY        -0.00109  -0.00115   0.00034   0.00454  -0.02045
  24        3PZ        -0.00472  -0.00011  -0.00038   0.05575  -0.12439
  25        4XX        -0.00023  -0.00050  -0.00072   0.00316   0.00374
  26        4YY        -0.00136  -0.00087  -0.00173  -0.00234   0.00132
  27        4ZZ        -0.00229  -0.00123  -0.00170   0.00778  -0.01591
  28        4XY        -0.00027  -0.00054   0.00039   0.00047  -0.00038
  29        4XZ        -0.00031   0.00012   0.00019   0.00715  -0.00121
  30        4YZ        -0.00018  -0.00000  -0.00012   0.00110  -0.00312
  31 3   F  1S          0.00766  -0.00566   0.00185   0.05049  -0.04941
  32        2S         -0.01586   0.01583  -0.00542  -0.11205   0.10382
  33        2PX         0.00286  -0.00260   0.00131   0.08092  -0.00189
  34        2PY         0.00249   0.00002   0.00058  -0.10535   0.25093
  35        2PZ         0.00134  -0.00029  -0.00124  -0.03851   0.10166
  36        3S         -0.02328   0.00987  -0.00329  -0.15407   0.17080
  37        3PX        -0.00001  -0.00435   0.00212   0.04196   0.00562
  38        3PY         0.00386  -0.00077   0.00083  -0.06214   0.14711
  39        3PZ         0.00158  -0.00105  -0.00089  -0.02302   0.06010
  40        4XX         0.00086   0.00064  -0.00018   0.00216   0.00299
  41        4YY        -0.00060   0.00217  -0.00084   0.00714  -0.01667
  42        4ZZ        -0.00026   0.00210  -0.00091  -0.00148  -0.00203
  43        4XY         0.00005   0.00042   0.00010  -0.00706   0.00059
  44        4XZ         0.00006  -0.00011  -0.00065  -0.00256   0.00022
  45        4YZ        -0.00021   0.00009  -0.00002   0.00434  -0.00832
  46 4   F  1S          0.01333  -0.00098  -0.00262   0.04720  -0.04262
  47        2S         -0.02900   0.00162   0.00706  -0.10464   0.09129
  48        2PX         0.00125  -0.00080  -0.00089   0.08616  -0.03673
  49        2PY        -0.00344  -0.00021  -0.00032   0.06468  -0.17384
  50        2PZ         0.00275  -0.00058  -0.00003  -0.05086   0.11989
  51        3S         -0.03394   0.00369   0.00563  -0.14362   0.14035
  52        3PX        -0.00141   0.00040  -0.00190   0.04659  -0.01733
  53        3PY        -0.00382  -0.00044   0.00032   0.03971  -0.10574
  54        3PZ         0.00231  -0.00103  -0.00075  -0.03021   0.07313
  55        4XX         0.00024  -0.00029   0.00024   0.00433   0.00204
  56        4YY        -0.00093  -0.00008   0.00081   0.00269  -0.01021
  57        4ZZ        -0.00066  -0.00028   0.00085   0.00028  -0.00452
  58        4XY        -0.00058  -0.00032  -0.00010   0.00598  -0.00398
  59        4XZ         0.00024  -0.00047  -0.00009  -0.00464   0.00251
  60        4YZ         0.00043   0.00006   0.00002  -0.00477   0.00955
  61 5   S  1S          0.05305  -0.00623  -0.00346   0.02847   0.03044
  62        2S         -0.23727   0.02760   0.01642  -0.12327  -0.13516
  63        2PX        -0.03329   0.00679   0.00737   0.11476   0.04484
  64        2PY         0.03241   0.09982  -0.04747  -0.02781  -0.03204
  65        2PZ         0.01145   0.09894   0.07833   0.01045   0.01913
  66        3S          0.49395  -0.05786  -0.03468   0.30190   0.32692
  67        3PX         0.06272  -0.01331  -0.01716  -0.28762  -0.11286
  68        3PY        -0.06450  -0.22249   0.10488   0.07060   0.08134
  69        3PZ        -0.02618  -0.22012  -0.17516  -0.02586  -0.04832
  70        4S         -0.05798   0.01674  -0.01129   0.01752   0.14464
  71        4PX        -0.00139   0.00154   0.00110   0.01350  -0.04656
  72        4PY        -0.00553   0.02870  -0.01681   0.00077   0.02105
  73        4PZ         0.00626   0.02075   0.01523   0.00549  -0.00350
  74        5XX        -0.03488  -0.00349   0.00343   0.04544   0.00016
  75        5YY         0.00372   0.03862   0.03099  -0.02123  -0.01021
  76        5ZZ         0.00120  -0.03757  -0.02440  -0.02677  -0.01057
  77        5XY        -0.01030  -0.03193   0.01125  -0.00436   0.00462
  78        5XZ        -0.00080  -0.03708  -0.02677  -0.00043  -0.00206
  79        5YZ         0.03182   0.03267  -0.04314  -0.01642  -0.01557
  80 6   O  1S         -0.08446   0.13821   0.10367   0.05099   0.04730
  81        2S          0.17991  -0.30377  -0.23356  -0.11614  -0.10228
  82        2PX        -0.03051   0.04371   0.03252  -0.03431  -0.03829
  83        2PY        -0.01789   0.01118   0.02511   0.00443   0.00040
  84        2PZ        -0.08126   0.10023   0.06429   0.00040  -0.04276
  85        3S          0.17515  -0.28416  -0.20708  -0.13422  -0.16202
  86        3PX        -0.01441   0.01397   0.01072  -0.01817  -0.01121
  87        3PY        -0.00441  -0.00191   0.00910  -0.00040  -0.00265
  88        3PZ        -0.03593   0.02999   0.01761  -0.00134  -0.01343
  89        4XX        -0.00270   0.00271   0.00055   0.00343   0.00391
  90        4YY        -0.00467   0.00587   0.00222   0.00032   0.00155
  91        4ZZ         0.01169  -0.00730  -0.00582   0.00045   0.00544
  92        4XY         0.00229  -0.00111  -0.00162   0.00014  -0.00002
  93        4XZ         0.00779  -0.00749  -0.00477   0.00347   0.00324
  94        4YZ         0.00447  -0.00137  -0.00313  -0.00042   0.00022
  95 7   O  1S         -0.13022  -0.13776   0.01915   0.05079   0.05145
  96        2S          0.28463   0.30849  -0.04330  -0.11911  -0.11589
  97        2PX        -0.03977  -0.03993   0.00517  -0.03977  -0.03915
  98        2PY         0.11029   0.08735  -0.00248   0.00379   0.05167
  99        2PZ         0.07056   0.05307  -0.02113  -0.00591   0.01083
 100        3S          0.23839   0.25661  -0.03889  -0.12197  -0.16475
 101        3PX        -0.01315  -0.01024   0.00240  -0.02114  -0.01311
 102        3PY         0.03329   0.01228   0.00088   0.00674   0.01931
 103        3PZ         0.01909   0.00711  -0.00899   0.00109   0.00432
 104        4XX        -0.00325  -0.00149   0.00052   0.00227   0.00241
 105        4YY         0.01115   0.00450   0.00093   0.00035   0.00494
 106        4ZZ         0.00134  -0.00185  -0.00191  -0.00114   0.00051
 107        4XY        -0.00728  -0.00554  -0.00022  -0.00431  -0.00372
 108        4XZ        -0.00504  -0.00290   0.00109  -0.00230  -0.00152
 109        4YZ         0.01297   0.00521  -0.00223  -0.00015   0.00192
 110 8   O  1S         -0.06206   0.06561  -0.18817   0.03836   0.03538
 111        2S          0.12800  -0.14390   0.41590  -0.08861  -0.07555
 112        2PX        -0.00676   0.00047  -0.00091  -0.05472  -0.07629
 113        2PY        -0.03481   0.00829  -0.03221  -0.04336  -0.10783
 114        2PZ         0.03620  -0.04000   0.07310   0.00225   0.02158
 115        3S          0.15197  -0.15317   0.44464  -0.10256  -0.12763
 116        3PX        -0.00702   0.00244   0.00147  -0.03049  -0.03864
 117        3PY        -0.02401   0.00828  -0.01430  -0.02187  -0.05080
 118        3PZ         0.02589  -0.02498   0.05015  -0.00326   0.00210
 119        4XX        -0.00382   0.00171  -0.00418   0.00083   0.00173
 120        4YY         0.00339  -0.00217   0.00483  -0.00017   0.00326
 121        4ZZ         0.00127  -0.00196   0.00240  -0.00087   0.00187
 122        4XY         0.00582  -0.00427   0.01164  -0.00035  -0.00087
 123        4XZ        -0.00119  -0.00105   0.00318  -0.00501  -0.00626
 124        4YZ        -0.00611   0.00161  -0.00219  -0.00398  -0.00797
 125 9   H  1S          0.01751  -0.02843   0.07004  -0.03769  -0.05763
 126        2S          0.00564  -0.01105   0.00528  -0.01567  -0.03152
                          21        22        23        24        25
                           O         O         O         O         O
     Eigenvalues --    -0.61729  -0.61129  -0.59875  -0.55031  -0.51065
   1 1   C  1S          0.01061  -0.00100   0.01058  -0.00856  -0.00556
   2        2S         -0.02290   0.00291  -0.02405   0.02316   0.01678
   3        2PX        -0.04192  -0.07716  -0.19631   0.04110   0.01296
   4        2PY         0.33017  -0.03635  -0.12537  -0.04167  -0.01602
   5        2PZ         0.02045  -0.33038   0.12812   0.03840  -0.01084
   6        3S         -0.03076   0.00312  -0.02092   0.00066   0.00786
   7        3PX        -0.01443  -0.02055  -0.06583   0.02160   0.02262
   8        3PY         0.09257  -0.00355  -0.03928  -0.00786  -0.02214
   9        3PZ        -0.00216  -0.10302   0.03963   0.01496  -0.00360
  10        4XX        -0.00251   0.00052   0.00614  -0.00463  -0.00317
  11        4YY         0.00868  -0.00985  -0.00094  -0.00020   0.00272
  12        4ZZ        -0.00500   0.01002  -0.00152   0.00145  -0.00081
  13        4XY        -0.01234   0.00197   0.00799   0.00901   0.01422
  14        4XZ        -0.00147   0.01289  -0.00901  -0.00857   0.00923
  15        4YZ         0.01014  -0.00098  -0.00560   0.00012   0.00201
  16 2   F  1S         -0.00969   0.05551  -0.01001  -0.00386   0.00121
  17        2S          0.01791  -0.09925   0.01881  -0.00255   0.00143
  18        2PX        -0.04907   0.14581  -0.14869   0.06124  -0.02506
  19        2PY         0.15081   0.04509  -0.07513  -0.05784  -0.06731
  20        2PZ        -0.06762   0.35399  -0.01368  -0.06453   0.06264
  21        3S          0.04059  -0.24562   0.04310   0.03719  -0.00814
  22        3PX        -0.02943   0.07984  -0.09211   0.04786  -0.02289
  23        3PY         0.09251   0.02582  -0.04515  -0.03953  -0.04669
  24        3PZ        -0.03886   0.19966  -0.00583  -0.03557   0.04232
  25        4XX        -0.00222   0.00936  -0.00567  -0.00109  -0.00129
  26        4YY         0.00039   0.00741  -0.00199  -0.00583   0.00172
  27        4ZZ        -0.00426   0.02157   0.00184  -0.00747   0.00531
  28        4XY         0.00431   0.00112  -0.00258  -0.00040  -0.00034
  29        4XZ        -0.00345   0.00727  -0.00766   0.00284  -0.00046
  30        4YZ         0.00854   0.00209  -0.00351  -0.00319  -0.00284
  31 3   F  1S          0.04732  -0.02031  -0.00517  -0.00239  -0.00190
  32        2S         -0.08276   0.03568   0.01119   0.00026  -0.00741
  33        2PX         0.12812  -0.11908  -0.16400   0.06564   0.17109
  34        2PY        -0.28603   0.18522  -0.05240   0.02416   0.08583
  35        2PZ        -0.18167  -0.12705   0.10353   0.08910   0.02179
  36        3S         -0.21395   0.09248   0.02029   0.01936   0.03433
  37        3PX         0.06979  -0.07134  -0.10457   0.04624   0.12147
  38        3PY        -0.15886   0.10574  -0.03456   0.01073   0.04991
  39        3PZ        -0.10412  -0.08074   0.06375   0.05847   0.01009
  40        4XX         0.00823  -0.00553  -0.00492   0.00042   0.00112
  41        4YY         0.01570  -0.01158   0.00718  -0.00188  -0.00878
  42        4ZZ         0.01037   0.00287  -0.00299  -0.00467  -0.00596
  43        4XY        -0.00547   0.00764   0.00719  -0.00327  -0.00612
  44        4XZ        -0.00402  -0.00180   0.00551  -0.00033  -0.00214
  45        4YZ         0.00766   0.00651  -0.00319  -0.00375  -0.00041
  46 4   F  1S         -0.03755  -0.01935   0.03533   0.00578   0.00077
  47        2S          0.06931   0.03488  -0.05843  -0.00893   0.00100
  48        2PX        -0.18360  -0.12977   0.05172   0.05970   0.01496
  49        2PY        -0.08356  -0.14351   0.23619   0.05288  -0.03860
  50        2PZ         0.18661  -0.06650  -0.15227  -0.02571  -0.08644
  51        3S          0.16239   0.08764  -0.16514  -0.02410  -0.00633
  52        3PX        -0.10779  -0.07731   0.01931   0.03542   0.00678
  53        3PY        -0.04225  -0.08257   0.13795   0.03384  -0.02751
  54        3PZ         0.10839  -0.04441  -0.08647  -0.01623  -0.06074
  55        4XX        -0.01061  -0.00766   0.00424   0.00156   0.00033
  56        4YY        -0.00264  -0.00856   0.01575   0.00286  -0.00167
  57        4ZZ        -0.01006   0.00333   0.01030   0.00191   0.00519
  58        4XY        -0.00467  -0.00745   0.00266   0.00291   0.00016
  59        4XZ         0.00811  -0.00051  -0.00114  -0.00179  -0.00137
  60        4YZ         0.00404  -0.00197  -0.00660  -0.00044  -0.00165
  61 5   S  1S          0.00836   0.00483   0.02105  -0.02375  -0.00075
  62        2S         -0.03522  -0.01924  -0.08763   0.09816   0.00092
  63        2PX        -0.05087  -0.03867  -0.09097   0.02721  -0.04029
  64        2PY        -0.04947  -0.02399  -0.03684  -0.09851  -0.11849
  65        2PZ         0.02896   0.04246   0.03462   0.09667  -0.08683
  66        3S          0.09786   0.06010   0.25189  -0.29340  -0.01813
  67        3PX         0.13172   0.09932   0.23484  -0.07063   0.10867
  68        3PY         0.12932   0.06223   0.09620   0.25936   0.32055
  69        3PZ        -0.07510  -0.11203  -0.09007  -0.25800   0.23941
  70        4S          0.00709  -0.01589   0.00183  -0.01326   0.01307
  71        4PX         0.02036   0.02095   0.04318  -0.00847   0.04037
  72        4PY         0.02422   0.00035   0.01296   0.04535   0.08004
  73        4PZ        -0.00212  -0.01668  -0.00730  -0.05327   0.04394
  74        5XX        -0.01485  -0.00831  -0.01851   0.00327   0.01630
  75        5YY         0.00449  -0.00292  -0.00261  -0.00278   0.00311
  76        5ZZ         0.00479   0.00857   0.00452   0.02798  -0.01395
  77        5XY        -0.01369   0.00681   0.01405   0.00866   0.00712
  78        5XZ        -0.00725   0.01564  -0.01540  -0.00986   0.00422
  79        5YZ        -0.00859  -0.00993  -0.01903  -0.01076   0.00296
  80 6   O  1S          0.01459  -0.00577   0.03787  -0.07800   0.06082
  81        2S         -0.03105   0.01393  -0.08552   0.16901  -0.12464
  82        2PX         0.01427   0.04033   0.02157   0.07292  -0.06699
  83        2PY         0.01857   0.01007  -0.00555   0.13418   0.07561
  84        2PZ        -0.04329  -0.01567  -0.10501   0.19648  -0.24043
  85        3S         -0.05458   0.02580  -0.12681   0.30386  -0.28010
  86        3PX         0.00773   0.02257   0.01108   0.02788  -0.02467
  87        3PY         0.00726   0.00439  -0.00384   0.06876   0.05371
  88        3PZ        -0.01937  -0.01156  -0.05143   0.08913  -0.10901
  89        4XX        -0.00073  -0.00249  -0.00255  -0.00375   0.00434
  90        4YY        -0.00024  -0.00000  -0.00103  -0.00549   0.00117
  91        4ZZ         0.00601   0.00290   0.01131  -0.01521   0.02046
  92        4XY        -0.00164  -0.00096  -0.00075  -0.00467  -0.00378
  93        4XZ        -0.00048  -0.00243  -0.00046  -0.00589   0.00590
  94        4YZ        -0.00101  -0.00091   0.00089  -0.00984  -0.00643
  95 7   O  1S          0.00830   0.01745   0.04596  -0.05817  -0.06869
  96        2S         -0.01733  -0.03959  -0.10489   0.12797   0.14026
  97        2PX         0.04812   0.01066   0.04587   0.03829   0.18908
  98        2PY         0.05443   0.05632   0.13265  -0.07533  -0.22298
  99        2PZ        -0.01344  -0.01420   0.03132  -0.24744  -0.11256
 100        3S         -0.02410  -0.06158  -0.15428   0.22198   0.32558
 101        3PX         0.02783   0.00405   0.02460   0.01326   0.09075
 102        3PY         0.02629   0.02641   0.06364  -0.02630  -0.09731
 103        3PZ        -0.00740  -0.00845   0.01174  -0.12812  -0.03778
 104        4XX        -0.00247  -0.00086  -0.00403  -0.00043  -0.00934
 105        4YY         0.00669   0.00637   0.01246  -0.00023  -0.01515
 106        4ZZ        -0.00079  -0.00164   0.00018  -0.01559  -0.00610
 107        4XY         0.00218  -0.00023   0.00171   0.00046   0.01374
 108        4XZ         0.00308   0.00190   0.00245   0.00686   0.00747
 109        4YZ         0.00028   0.00101   0.00539  -0.01475  -0.00605
 110 8   O  1S          0.02481   0.01568   0.02955   0.00343   0.03625
 111        2S         -0.05625  -0.03645  -0.06311   0.00298  -0.08076
 112        2PX        -0.06458  -0.04785  -0.05254  -0.14689   0.03414
 113        2PY        -0.13541  -0.11124  -0.22093  -0.19834   0.00998
 114        2PZ         0.02811   0.00841   0.04499  -0.03741   0.20424
 115        3S         -0.08378  -0.04938  -0.10046  -0.04662  -0.14485
 116        3PX        -0.04052  -0.03148  -0.02592  -0.08806   0.02613
 117        3PY        -0.07468  -0.06231  -0.12640  -0.10905   0.01684
 118        3PZ         0.00721   0.00173   0.01825  -0.04008   0.12737
 119        4XX        -0.00056  -0.00072  -0.00178   0.00322  -0.00126
 120        4YY         0.00204   0.00178   0.00727   0.00679  -0.00418
 121        4ZZ         0.00041  -0.00084   0.00337  -0.00130   0.01679
 122        4XY        -0.00191  -0.00105  -0.00347  -0.00093  -0.00270
 123        4XZ        -0.00539  -0.00343  -0.00446  -0.00949   0.00171
 124        4YZ        -0.00884  -0.00698  -0.01485  -0.00888  -0.00192
 125 9   H  1S         -0.05966  -0.04948  -0.08255  -0.10833   0.05409
 126        2S         -0.03612  -0.02497  -0.05246  -0.06385   0.02831
                          26        27        28        29        30
                           O         O         O         O         O
     Eigenvalues --    -0.49426  -0.48925  -0.48520  -0.46473  -0.45656
   1 1   C  1S         -0.01385   0.00107  -0.01153  -0.00205   0.00059
   2        2S          0.04209  -0.00258   0.03084   0.00315  -0.00194
   3        2PX         0.02069   0.00864   0.01782   0.02894  -0.00860
   4        2PY         0.01417   0.02612  -0.04758  -0.00289  -0.03195
   5        2PZ        -0.00033  -0.07375  -0.01197   0.01688  -0.01416
   6        3S          0.00997  -0.00171   0.03128   0.02183   0.00476
   7        3PX         0.09633  -0.01529   0.07603  -0.01672  -0.01993
   8        3PY        -0.04482  -0.01841   0.05354  -0.05740   0.08392
   9        3PZ        -0.00500   0.06137   0.02957  -0.02929   0.03102
  10        4XX        -0.02354   0.00423  -0.01625   0.00876   0.00713
  11        4YY         0.01192  -0.02670  -0.00986   0.00045  -0.01510
  12        4ZZ         0.00309   0.02379   0.02068  -0.00664   0.01067
  13        4XY         0.01209  -0.00241  -0.00938  -0.00403   0.01793
  14        4XZ         0.00029  -0.00937  -0.00763  -0.00508   0.00790
  15        4YZ         0.01391   0.02437  -0.02351  -0.00466  -0.01277
  16 2   F  1S         -0.00078   0.00479  -0.00013   0.00012  -0.00004
  17        2S         -0.00328  -0.00932  -0.00613   0.00623   0.00309
  18        2PX         0.16449   0.24718   0.29507  -0.02999  -0.19077
  19        2PY        -0.17674  -0.12523   0.29116   0.01302   0.29794
  20        2PZ         0.00510   0.10811  -0.05559  -0.07801   0.15327
  21        3S          0.02394  -0.00254   0.03020  -0.02726   0.00478
  22        3PX         0.10738   0.17657   0.20266  -0.02252  -0.12562
  23        3PY        -0.11899  -0.08736   0.20193   0.01545   0.19264
  24        3PZ         0.01390   0.07276  -0.02909  -0.06002   0.10386
  25        4XX        -0.00031   0.00749   0.00314   0.00398  -0.00372
  26        4YY        -0.00371  -0.00556  -0.00244   0.00431   0.00006
  27        4ZZ        -0.00036   0.00259  -0.00644  -0.00121   0.00791
  28        4XY        -0.00071  -0.00086   0.00426  -0.00108   0.00449
  29        4XZ         0.00641   0.01034   0.01058  -0.00160  -0.00427
  30        4YZ        -0.00662  -0.00397   0.01090   0.00229   0.00782
  31 3   F  1S         -0.00107   0.00010  -0.00198  -0.00110   0.00430
  32        2S         -0.00715   0.00068   0.00401  -0.00925  -0.00951
  33        2PX         0.39967  -0.10683  -0.12857  -0.11862   0.28642
  34        2PY        -0.00862  -0.17874   0.07801  -0.00258   0.26993
  35        2PZ         0.09985   0.41342  -0.01045  -0.10439   0.15210
  36        3S          0.04720  -0.00564  -0.00314   0.03688  -0.04808
  37        3PX         0.26898  -0.07334  -0.10010  -0.07649   0.18738
  38        3PY        -0.01874  -0.12078   0.04970  -0.00830   0.18854
  39        3PZ         0.06331   0.28224  -0.01065  -0.07249   0.10525
  40        4XX         0.00247  -0.00153  -0.00527  -0.00668   0.00900
  41        4YY        -0.00358   0.01102  -0.00045  -0.00471  -0.01041
  42        4ZZ        -0.00817  -0.00865   0.00468  -0.00288   0.00101
  43        4XY        -0.01399   0.00189   0.00548   0.00300  -0.00481
  44        4XZ        -0.00444   0.00548   0.00117  -0.00005  -0.00131
  45        4YZ        -0.00257  -0.01163  -0.00065   0.00322  -0.00808
  46 4   F  1S         -0.00180  -0.00470   0.00114   0.00150  -0.00005
  47        2S         -0.00209   0.01182  -0.00778   0.01061   0.00264
  48        2PX         0.09599  -0.27618   0.31598  -0.02036  -0.15596
  49        2PY        -0.09855   0.08146   0.13816   0.02172   0.30522
  50        2PZ        -0.06790   0.20034   0.25296  -0.01682   0.07968
  51        3S          0.02660  -0.00436   0.02379  -0.04049   0.00605
  52        3PX         0.06057  -0.19587   0.21929  -0.01828  -0.10201
  53        3PY        -0.05783   0.05657   0.10068   0.01214   0.20172
  54        3PZ        -0.05261   0.13887   0.16931   0.00102   0.04784
  55        4XX        -0.00225  -0.00845   0.00713   0.00552  -0.00429
  56        4YY        -0.00571   0.00930   0.00273   0.00759   0.00963
  57        4ZZ         0.00155  -0.00234  -0.01372   0.00399  -0.00137
  58        4XY         0.00207  -0.00591   0.01076  -0.00057   0.00237
  59        4XZ        -0.00352   0.00823  -0.00263   0.00038   0.00508
  60        4YZ        -0.00030   0.00435   0.00318   0.00008  -0.00427
  61 5   S  1S         -0.00403   0.00224  -0.00385   0.00484   0.00131
  62        2S          0.01522  -0.01023   0.01624  -0.02044  -0.00532
  63        2PX        -0.09988   0.00922  -0.06082   0.02231   0.01320
  64        2PY         0.04861  -0.00901  -0.01224  -0.02158   0.01385
  65        2PZ         0.04919  -0.00856  -0.00838   0.08411   0.01821
  66        3S         -0.04987   0.02411  -0.04514   0.05676   0.01684
  67        3PX         0.27506  -0.02641   0.16809  -0.06483  -0.03884
  68        3PY        -0.13406   0.02500   0.03023   0.05665  -0.04056
  69        3PZ        -0.13397   0.02090   0.02167  -0.22978  -0.05089
  70        4S         -0.03280   0.01226  -0.02916   0.00611   0.00461
  71        4PX         0.09335  -0.00462   0.05651   0.00300  -0.01063
  72        4PY         0.02813   0.02736  -0.06264   0.09777   0.06693
  73        4PZ         0.00218  -0.05948  -0.02554   0.00387   0.04096
  74        5XX         0.01978  -0.00048   0.02189   0.01301  -0.00696
  75        5YY        -0.00909  -0.00162  -0.01518   0.02470   0.01198
  76        5ZZ        -0.02019   0.00120  -0.00704  -0.03711  -0.00647
  77        5XY        -0.01751   0.00192   0.00152   0.02776  -0.01513
  78        5XZ        -0.00843   0.01247   0.00047  -0.00538  -0.01102
  79        5YZ         0.00651   0.01150  -0.00951   0.06550   0.01240
  80 6   O  1S         -0.01312   0.00698   0.00945  -0.02294  -0.00703
  81        2S          0.03245  -0.02679  -0.02531   0.04514   0.02046
  82        2PX         0.16139  -0.02256   0.06084   0.10573  -0.01059
  83        2PY        -0.02399   0.02024  -0.01652   0.23347   0.03077
  84        2PZ         0.01978  -0.03659  -0.07112   0.08954   0.06597
  85        3S          0.03285   0.01074  -0.02282   0.09942   0.00468
  86        3PX         0.09307  -0.01839   0.03626   0.06610  -0.00799
  87        3PY        -0.01850   0.00771  -0.00080   0.14916   0.01176
  88        3PZ         0.01036  -0.02372  -0.04057   0.03040   0.04053
  89        4XX        -0.00621  -0.00338  -0.00509  -0.00567   0.00352
  90        4YY         0.00224  -0.00484  -0.00218  -0.00459   0.00235
  91        4ZZ         0.00424  -0.00331   0.00549  -0.00370  -0.00247
  92        4XY        -0.00106  -0.00031  -0.00076  -0.00592  -0.00071
  93        4XZ        -0.01122   0.00208  -0.00377  -0.00720   0.00043
  94        4YZ         0.00360  -0.00130   0.00017  -0.01594  -0.00100
  95 7   O  1S          0.04062  -0.00315  -0.00280   0.01510   0.00605
  96        2S         -0.08947   0.00697   0.02028  -0.03985  -0.02099
  97        2PX         0.08005  -0.01737   0.12595  -0.13480  -0.02458
  98        2PY         0.21452  -0.01538   0.00527   0.15658   0.06600
  99        2PZ         0.11094  -0.01822   0.00202  -0.06241   0.03994
 100        3S         -0.17003   0.01018  -0.04044  -0.02598   0.01251
 101        3PX         0.04993  -0.01531   0.07970  -0.09238  -0.01232
 102        3PY         0.10097  -0.01297   0.00117   0.08153   0.03749
 103        3PZ         0.04929  -0.00029  -0.00543  -0.04235   0.02505
 104        4XX        -0.00580   0.00125  -0.00006   0.00266  -0.00387
 105        4YY         0.01384  -0.00240   0.00872   0.00649  -0.00055
 106        4ZZ         0.00225  -0.00027   0.00626  -0.01386  -0.00282
 107        4XY         0.00372  -0.00124   0.00831  -0.00989  -0.00205
 108        4XZ         0.00370  -0.00015   0.00568  -0.00138  -0.00141
 109        4YZ         0.00933  -0.00027   0.00194  -0.00191   0.00215
 110 8   O  1S          0.00796   0.00933   0.00750   0.06106   0.00314
 111        2S         -0.01434  -0.01094  -0.02217  -0.13255  -0.00560
 112        2PX         0.11653   0.03364   0.05877   0.16784  -0.02217
 113        2PY        -0.02325   0.04340  -0.03399   0.10922   0.04322
 114        2PZ         0.00030   0.04145   0.02930   0.31789   0.01243
 115        3S         -0.05017  -0.07074  -0.01268  -0.26911  -0.02306
 116        3PX         0.07501   0.02754   0.03388   0.11954  -0.01639
 117        3PY        -0.00895   0.03684  -0.02441   0.07636   0.02919
 118        3PZ        -0.00657   0.02596   0.02126   0.20674   0.00092
 119        4XX         0.00117   0.00395  -0.00232   0.00119   0.00130
 120        4YY         0.00364   0.00211  -0.00190  -0.00169   0.00008
 121        4ZZ         0.00021   0.00828   0.00057   0.02711   0.00070
 122        4XY        -0.00383   0.00054  -0.00244  -0.00024   0.00082
 123        4XZ         0.00738   0.00275   0.00408   0.01192  -0.00152
 124        4YZ        -0.00001   0.00204  -0.00244   0.00508   0.00277
 125 9   H  1S          0.02585   0.03555   0.00968   0.17246   0.01327
 126        2S          0.01595   0.02260   0.01669   0.14327   0.00655
                          31        32        33        34        35
                           O         O         O         O         O
     Eigenvalues --    -0.44947  -0.43310  -0.40245  -0.38313  -0.37090
   1 1   C  1S          0.00046  -0.00014   0.00232  -0.04310  -0.00781
   2        2S         -0.00013   0.00077  -0.00678   0.07825   0.01029
   3        2PX        -0.00630   0.00114  -0.01257   0.22825   0.03506
   4        2PY        -0.01559  -0.00311   0.00098  -0.02078  -0.00432
   5        2PZ         0.03131   0.00927  -0.00141   0.00838   0.00036
   6        3S         -0.00440  -0.00074  -0.00294   0.32897   0.08265
   7        3PX         0.00522   0.00107   0.00413   0.08779   0.02462
   8        3PY         0.04131   0.00969   0.02100   0.02194  -0.04487
   9        3PZ        -0.06289  -0.03157  -0.08330   0.02291  -0.01618
  10        4XX         0.00250   0.00074  -0.00140   0.02560   0.00258
  11        4YY         0.00542   0.00282  -0.00028  -0.01248  -0.00101
  12        4ZZ        -0.00763  -0.00335   0.00170  -0.01322  -0.00298
  13        4XY         0.01082   0.00145   0.00193  -0.00354  -0.00530
  14        4XZ        -0.02164  -0.00313  -0.00273   0.00292  -0.00152
  15        4YZ        -0.00591  -0.00316   0.00069  -0.00013   0.00010
  16 2   F  1S          0.00143   0.00146   0.00179   0.00239   0.00164
  17        2S         -0.00509  -0.00246   0.01465   0.00003   0.00181
  18        2PX         0.31682   0.08496   0.01646  -0.12886  -0.04848
  19        2PY        -0.05146   0.41746  -0.02945  -0.00644   0.04771
  20        2PZ        -0.28387  -0.12913  -0.00378  -0.03823  -0.00715
  21        3S         -0.02002  -0.01544  -0.05757  -0.03350  -0.02646
  22        3PX         0.21081   0.05376   0.00571  -0.10002  -0.03678
  23        3PY        -0.04248   0.27990  -0.02548  -0.00834   0.03738
  24        3PZ        -0.19450  -0.08971  -0.01503  -0.03607  -0.01191
  25        4XX         0.00882   0.00274   0.00802   0.00287   0.00215
  26        4YY         0.00095   0.00325   0.00744   0.00221   0.00246
  27        4ZZ        -0.01312  -0.00547   0.00720   0.00011   0.00150
  28        4XY         0.00107   0.00759   0.00005  -0.00021  -0.00043
  29        4XZ         0.00532  -0.00007  -0.00050  -0.00254  -0.00122
  30        4YZ        -0.00436   0.01009  -0.00188  -0.00146   0.00253
  31 3   F  1S          0.00047  -0.00021  -0.00061   0.00569  -0.00279
  32        2S          0.00042   0.00009  -0.00638   0.00740   0.00202
  33        2PX         0.04254  -0.02729  -0.01880  -0.16545   0.06318
  34        2PY         0.11942  -0.11795  -0.02049   0.03779   0.01646
  35        2PZ        -0.23829   0.26865   0.02319  -0.00987   0.00113
  36        3S         -0.00760   0.00226   0.01935  -0.08974   0.02939
  37        3PX         0.02708  -0.01792  -0.00902  -0.12876   0.04221
  38        3PY         0.07704  -0.08044  -0.02105   0.04570   0.00636
  39        3PZ        -0.14818   0.18219   0.02557  -0.00024  -0.00024
  40        4XX         0.00189  -0.00087  -0.00338   0.00918  -0.00142
  41        4YY        -0.00333   0.00527  -0.00093   0.00597  -0.00218
  42        4ZZ         0.00306  -0.00485  -0.00589   0.00851  -0.00146
  43        4XY         0.00170  -0.00147   0.00079   0.00318  -0.00222
  44        4XZ        -0.00571   0.00509  -0.00053   0.00142  -0.00052
  45        4YZ         0.00320  -0.00587  -0.00230  -0.00042  -0.00018
  46 4   F  1S         -0.00175  -0.00116  -0.00176   0.00331   0.00190
  47        2S          0.00432   0.00259  -0.01211  -0.00323   0.00153
  48        2PX        -0.28442  -0.04490   0.02261  -0.18423  -0.06631
  49        2PY         0.28884  -0.21175   0.00686  -0.01021   0.03198
  50        2PZ        -0.20055  -0.40292   0.01332  -0.01390   0.01926
  51        3S          0.02827   0.01181   0.05119  -0.03893  -0.02862
  52        3PX        -0.18812  -0.02721   0.02210  -0.13826  -0.05035
  53        3PY         0.20281  -0.14025   0.01692  -0.01842   0.02060
  54        3PZ        -0.13611  -0.27175   0.00859  -0.00660   0.02180
  55        4XX        -0.01069  -0.00136  -0.00636   0.00097   0.00176
  56        4YY         0.01014  -0.00682  -0.00496  -0.00041   0.00417
  57        4ZZ         0.00266   0.00875  -0.00833   0.00250   0.00051
  58        4XY        -0.00122  -0.00520   0.00094  -0.00353  -0.00107
  59        4XZ         0.00065  -0.00765  -0.00046   0.00225   0.00129
  60        4YZ        -0.00944  -0.00504   0.00085   0.00025   0.00020
  61 5   S  1S          0.00047   0.00017  -0.00251   0.00215   0.00007
  62        2S         -0.00249  -0.00082   0.01008  -0.00414   0.00151
  63        2PX        -0.00458   0.00032  -0.00501   0.03627   0.01512
  64        2PY         0.00575  -0.00017   0.00440  -0.00851   0.00621
  65        2PZ        -0.01812  -0.00045   0.01569   0.01001  -0.00304
  66        3S          0.00496   0.00186  -0.03329   0.03455   0.00240
  67        3PX         0.01189  -0.00102   0.01335  -0.11783  -0.04471
  68        3PY        -0.01700  -0.00016  -0.00985   0.02490  -0.01635
  69        3PZ         0.05229   0.00168  -0.04580  -0.03018   0.00845
  70        4S          0.00209   0.00399   0.00584   0.00333  -0.00405
  71        4PX         0.00174  -0.00110   0.00936   0.15911   0.06821
  72        4PY         0.01192   0.00229  -0.02947  -0.04498  -0.13309
  73        4PZ        -0.06373  -0.00623   0.13546   0.03296  -0.02816
  74        5XX        -0.00279   0.00065  -0.00290   0.11577   0.02940
  75        5YY        -0.00415   0.00230   0.10683  -0.04846  -0.00766
  76        5ZZ         0.00424  -0.00320  -0.10204  -0.04748  -0.01072
  77        5XY        -0.00784  -0.00019  -0.01337  -0.05885   0.08485
  78        5XZ         0.01885   0.00333   0.02665  -0.04710   0.04501
  79        5YZ        -0.00121   0.00192  -0.07120  -0.06429  -0.05642
  80 6   O  1S          0.00557   0.00006  -0.01183  -0.00894  -0.00114
  81        2S         -0.01885  -0.00106   0.03461   0.02096  -0.00043
  82        2PX        -0.00199   0.00784   0.21353   0.09372   0.21878
  83        2PY        -0.03735   0.00806  -0.01287  -0.12804  -0.16020
  84        2PZ        -0.05773  -0.00761   0.12517   0.20167  -0.05855
  85        3S          0.00684   0.00280  -0.01046   0.00550   0.01982
  86        3PX        -0.00181   0.00556   0.15673   0.04205   0.15017
  87        3PY        -0.03177   0.00721  -0.00179  -0.09170  -0.09445
  88        3PZ        -0.03449  -0.00610   0.06708   0.13207  -0.04488
  89        4XX        -0.00376  -0.00091  -0.00419   0.00507  -0.01053
  90        4YY        -0.00205  -0.00051   0.00921   0.00546   0.00137
  91        4ZZ         0.00019   0.00045   0.00513  -0.00761   0.00394
  92        4XY         0.00070  -0.00061  -0.00198   0.00290   0.00404
  93        4XZ         0.00088  -0.00022  -0.01050  -0.00465  -0.01293
  94        4YZ         0.00319  -0.00050   0.00112   0.00804   0.00822
  95 7   O  1S         -0.00023   0.00015  -0.00140  -0.00297   0.00138
  96        2S          0.00240   0.00138  -0.00134   0.01238   0.00004
  97        2PX         0.00169  -0.00342  -0.01198   0.42855  -0.26611
  98        2PY        -0.02106  -0.00425  -0.23045  -0.00083  -0.27633
  99        2PZ         0.01442   0.00715   0.36021   0.04313  -0.04912
 100        3S         -0.01010  -0.00495   0.02531  -0.01944  -0.05404
 101        3PX        -0.00067  -0.00070  -0.01536   0.28532  -0.20089
 102        3PY        -0.01922  -0.00573  -0.15644   0.00833  -0.17658
 103        3PZ         0.01889   0.00744   0.24174   0.02508  -0.03269
 104        4XX         0.00078   0.00063  -0.00071  -0.00997   0.01841
 105        4YY        -0.00207  -0.00006  -0.02347   0.00959  -0.01327
 106        4ZZ         0.00324   0.00124   0.02044   0.00773   0.00512
 107        4XY        -0.00010   0.00014   0.00317   0.02123  -0.01312
 108        4XZ         0.00019  -0.00038  -0.00854   0.01253  -0.01266
 109        4YZ         0.00134   0.00027   0.01261   0.00485  -0.00743
 110 8   O  1S         -0.00283   0.00178   0.00286   0.00975  -0.00109
 111        2S          0.01129  -0.00330  -0.01488  -0.02233   0.00055
 112        2PX        -0.03377  -0.00260  -0.28863   0.17922   0.31903
 113        2PY         0.04191   0.01182  -0.00516  -0.04633  -0.28323
 114        2PZ        -0.03525   0.00648   0.24570   0.00766   0.00575
 115        3S         -0.01231  -0.01072   0.04422  -0.03786   0.03428
 116        3PX        -0.02637  -0.00257  -0.22044   0.11783   0.22587
 117        3PY         0.03958   0.00730  -0.00612  -0.03376  -0.20454
 118        3PZ        -0.02293   0.00161   0.18211  -0.00610   0.01709
 119        4XX         0.00337   0.00057  -0.00475   0.00389  -0.00165
 120        4YY        -0.00009  -0.00029  -0.01166   0.00290   0.00305
 121        4ZZ         0.00003   0.00089   0.01143  -0.00340  -0.00192
 122        4XY         0.00086   0.00045   0.00495  -0.00211  -0.00468
 123        4XZ        -0.00151   0.00045  -0.01394   0.00726   0.01541
 124        4YZ         0.00225   0.00048  -0.00642  -0.00023  -0.01331
 125 9   H  1S         -0.00469   0.00612  -0.02240   0.03939  -0.00638
 126        2S         -0.00522   0.00556  -0.01957   0.02330   0.00067
                          36        37        38        39        40
                           O         O         V         V         V
     Eigenvalues --    -0.35874  -0.34298  -0.05600  -0.02481   0.00974
   1 1   C  1S         -0.02539  -0.01214   0.04132   0.07159  -0.09835
   2        2S          0.04581   0.02398  -0.09506  -0.16206   0.23470
   3        2PX         0.12556   0.05763  -0.12466  -0.25937   0.22353
   4        2PY        -0.01333  -0.00664   0.08412  -0.16027  -0.23964
   5        2PZ         0.00303   0.00379  -0.11027   0.14742  -0.05609
   6        3S          0.19061   0.08075  -0.28532  -0.53402   0.64400
   7        3PX         0.05489   0.02093  -0.09112  -0.26286   0.15646
   8        3PY        -0.00594  -0.03813   0.19013  -0.23112  -0.28219
   9        3PZ        -0.04433   0.01675  -0.14678   0.19658  -0.07312
  10        4XX         0.01226   0.00463   0.00481  -0.00119  -0.01925
  11        4YY        -0.00598  -0.00308   0.00461   0.00850   0.00590
  12        4ZZ        -0.00712  -0.00240  -0.00120   0.00843  -0.00988
  13        4XY        -0.00245  -0.00101   0.00939  -0.02817  -0.02405
  14        4XZ        -0.00366   0.00276  -0.01765   0.02091  -0.00888
  15        4YZ         0.00046  -0.00045  -0.00056   0.00597   0.00615
  16 2   F  1S          0.00536   0.00036   0.00702  -0.02026   0.02363
  17        2S          0.00085   0.00219  -0.01439   0.03301  -0.05392
  18        2PX        -0.14129  -0.00898  -0.03106   0.12655  -0.12039
  19        2PY         0.00132  -0.00305  -0.03523   0.06843   0.05386
  20        2PZ        -0.00958  -0.00779  -0.01041   0.08423  -0.11671
  21        3S         -0.06949  -0.00771  -0.05676   0.17663  -0.17519
  22        3PX        -0.10785  -0.00979  -0.02284   0.12493  -0.10354
[...]
 125 9   H  1S         -0.00000   0.00006  -0.00001  -0.00000   0.00000
 126        2S         -0.00011   0.00123  -0.00018   0.00000   0.00003
                         106       107       108       109       110
 106        4ZZ         0.00261
 107        4XY        -0.00000   0.00244
 108        4XZ         0.00000  -0.00000   0.00134
 109        4YZ        -0.00000  -0.00000   0.00000   0.00182
 110 8   O  1S         -0.00000  -0.00000  -0.00000   0.00000   2.07876
 111        2S          0.00000   0.00000   0.00000  -0.00000  -0.04320
 112        2PX        -0.00000   0.00000   0.00000  -0.00000   0.00000
 113        2PY         0.00000   0.00000   0.00000   0.00000   0.00000
 114        2PZ         0.00000  -0.00000  -0.00000   0.00000   0.00000
 115        3S          0.00012   0.00000   0.00000  -0.00001  -0.04340
 116        3PX         0.00000   0.00001   0.00000  -0.00000   0.00000
 117        3PY         0.00018   0.00000   0.00000   0.00001   0.00000
 118        3PZ        -0.00000  -0.00000  -0.00000   0.00001   0.00000
 119        4XX        -0.00000  -0.00000   0.00000   0.00000  -0.00045
 120        4YY        -0.00000  -0.00000  -0.00000   0.00000  -0.00060
 121        4ZZ        -0.00000  -0.00000   0.00000  -0.00000  -0.00040
 122        4XY        -0.00000   0.00000  -0.00000  -0.00000   0.00000
 123        4XZ        -0.00000  -0.00000  -0.00000   0.00000   0.00000
 124        4YZ        -0.00000  -0.00000  -0.00000   0.00000   0.00000
 125 9   H  1S         -0.00000  -0.00000   0.00000  -0.00000  -0.00023
 126        2S         -0.00001  -0.00000   0.00000  -0.00000   0.00037
                         111       112       113       114       115
 111        2S          0.52106
 112        2PX         0.00000   0.70805
 113        2PY         0.00000   0.00000   0.59788
 114        2PZ         0.00000   0.00000  -0.00000   0.66266
 115        3S          0.47135   0.00000   0.00000   0.00000   0.80475
 116        3PX         0.00000   0.25162   0.00000   0.00000   0.00000
 117        3PY         0.00000   0.00000   0.19597  -0.00000   0.00000
 118        3PZ         0.00000   0.00000  -0.00000   0.22672   0.00000
 119        4XX        -0.00278   0.00000   0.00000   0.00000  -0.00577
 120        4YY         0.00267   0.00000   0.00000   0.00000   0.00222
 121        4ZZ        -0.00508   0.00000   0.00000   0.00000  -0.01235
 122        4XY        -0.00000   0.00000   0.00000   0.00000  -0.00000
 123        4XZ        -0.00000   0.00000   0.00000   0.00000  -0.00000
 124        4YZ        -0.00000   0.00000   0.00000   0.00000   0.00000
 125 9   H  1S          0.00505   0.01220   0.01621   0.01596   0.00427
 126        2S         -0.00587   0.00743   0.01020   0.00944  -0.02978
                         116       117       118       119       120
 116        3PX         0.35836
 117        3PY         0.00000   0.26164
 118        3PZ         0.00000  -0.00000   0.31178
 119        4XX         0.00000   0.00000   0.00000   0.00052
 120        4YY         0.00000   0.00000   0.00000   0.00008   0.00085
 121        4ZZ         0.00000   0.00000   0.00000  -0.00004  -0.00011
 122        4XY         0.00000   0.00000   0.00000   0.00000   0.00000
 123        4XZ         0.00000   0.00000   0.00000  -0.00000  -0.00000
 124        4YZ         0.00000   0.00000   0.00000  -0.00000   0.00000
 125 9   H  1S          0.02492   0.03099   0.03548  -0.00014  -0.00056
 126        2S          0.01681   0.02201   0.02274   0.00009  -0.00075
                         121       122       123       124       125
 121        4ZZ         0.00289
 122        4XY        -0.00000   0.00066
 123        4XZ        -0.00000   0.00000   0.00199
 124        4YZ         0.00000  -0.00000  -0.00000   0.00192
 125 9   H  1S          0.00227   0.00052   0.00166   0.00163   0.15387
 126        2S          0.00310   0.00005   0.00033   0.00034   0.06564
                         126
 126        2S          0.07173
     Gross orbital populations:
                           1
   1 1   C  1S          1.99220
   2        2S          0.72101
   3        2PX         0.66544
   4        2PY         0.54190
   5        2PZ         0.53549
   6        3S          0.36902
   7        3PX         0.18556
   8        3PY         0.12599
   9        3PZ         0.13359
  10        4XX         0.01530
  11        4YY         0.00736
  12        4ZZ         0.00480
  13        4XY         0.02276
  14        4XZ         0.02093
  15        4YZ         0.03119
  16 2   F  1S          1.99334
  17        2S          0.95545
  18        2PX         1.13506
  19        2PY         1.18939
  20        2PZ         0.96052
  21        3S          0.97951
  22        3PX         0.69519
  23        3PY         0.71512
  24        3PZ         0.56775
  25        4XX         0.01042
  26        4YY         0.00622
  27        4ZZ         0.02964
  28        4XY         0.00071
  29        4XZ         0.00504
  30        4YZ         0.00299
  31 3   F  1S          1.99331
  32        2S          0.95644
  33        2PX         1.14785
  34        2PY         0.98718
  35        2PZ         1.15955
  36        3S          0.96884
  37        3PX         0.69484
  38        3PY         0.57079
  39        3PZ         0.68782
  40        4XX         0.01034
  41        4YY         0.02746
  42        4ZZ         0.00961
  43        4XY         0.00461
  44        4XZ         0.00123
  45        4YZ         0.00453
  46 4   F  1S          1.99334
  47        2S          0.95537
  48        2PX         1.10206
  49        2PY         1.06243
  50        2PZ         1.11923
  51        3S          0.98069
  52        3PX         0.67843
  53        3PY         0.63624
  54        3PZ         0.67102
  55        4XX         0.01305
  56        4YY         0.01810
  57        4ZZ         0.01239
  58        4XY         0.00396
  59        4XZ         0.00269
  60        4YZ         0.00430
  61 5   S  1S          1.99861
  62        2S          1.98809
  63        2PX         1.98867
  64        2PY         1.98859
  65        2PZ         1.98878
  66        3S          1.34391
  67        3PX         0.90617
  68        3PY         0.83783
  69        3PZ         0.85319
  70        4S         -0.05277
  71        4PX         0.16266
  72        4PY         0.15082
  73        4PZ         0.11678
  74        5XX         0.07386
  75        5YY         0.06618
  76        5ZZ         0.07220
  77        5XY         0.08607
  78        5XZ         0.09960
  79        5YZ         0.16233
  80 6   O  1S          1.99268
  81        2S          0.93045
  82        2PX         0.95550
  83        2PY         1.00831
  84        2PZ         0.88084
  85        3S          1.00448
  86        3PX         0.61834
  87        3PY         0.65183
  88        3PZ         0.43209
  89        4XX        -0.00598
  90        4YY        -0.00952
  91        4ZZ         0.01083
  92        4XY         0.00199
  93        4XZ         0.00900
  94        4YZ         0.00770
  95 7   O  1S          1.99257
  96        2S          0.93621
  97        2PX         0.97827
  98        2PY         0.93287
  99        2PZ         0.96947
 100        3S          0.94614
 101        3PX         0.60765
 102        3PY         0.44760
 103        3PZ         0.55113
 104        4XX        -0.00395
 105        4YY         0.00952
 106        4ZZ        -0.00010
 107        4XY         0.00834
 108        4XZ         0.00445
 109        4YZ         0.00895
 110 8   O  1S          1.99271
 111        2S          0.92051
 112        2PX         0.99862
 113        2PY         0.86704
 114        2PZ         0.94585
 115        3S          1.03038
 116        3PX         0.68709
 117        3PY         0.54390
 118        3PZ         0.62316
 119        4XX        -0.00671
 120        4YY         0.00880
 121        4ZZ        -0.00378
 122        4XY         0.00211
 123        4XZ         0.00542
 124        4YZ         0.00887
 125 9   H  1S          0.36977
 126        2S          0.20047
          Condensed to atoms (all electrons):
               1          2          3          4          5          6
     1  C    4.744436   0.204910   0.214293   0.214671   0.084856  -0.030613
     2  F    0.204910   9.096144  -0.031231  -0.033380   0.010330   0.000199
     3  F    0.214293  -0.031231   9.064622  -0.032292   0.009652  -0.000366
     4  F    0.214671  -0.033380  -0.032292   9.097464   0.006624  -0.000041
     5  S    0.084856   0.010330   0.009652   0.006624  13.631436   0.437088
     6  O   -0.030613   0.000199  -0.000366  -0.000041   0.437088   8.177354
     7  O   -0.038472  -0.000282   0.000223   0.000059   0.491542  -0.044625
     8  O   -0.022545  -0.000341  -0.000302   0.000189   0.158221  -0.053257
     9  H    0.000989  -0.000000  -0.000210  -0.000005   0.001849   0.002798
               7          8          9
     1  C   -0.038472  -0.022545   0.000989
     2  F   -0.000282  -0.000341  -0.000000
     3  F    0.000223  -0.000302  -0.000210
     4  F    0.000059   0.000189  -0.000005
     5  S    0.491542   0.158221   0.001849
     6  O   -0.044625  -0.053257   0.002798
     7  O    8.030922  -0.051442   0.001173
     8  O   -0.051442   8.386702   0.206758
     9  H    0.001173   0.206758   0.356884
 Mulliken charges:
               1
     1  C    0.627475
     2  F   -0.246349
     3  F   -0.224389
     4  F   -0.253289
     5  S    1.168404
     6  O   -0.488536
     7  O   -0.389098
     8  O   -0.623982
     9  H    0.429765
 Sum of Mulliken charges =  -0.00000
 Mulliken charges with hydrogens summed into heavy atoms:
               1
     1  C    0.627475
     2  F   -0.246349
     3  F   -0.224389
     4  F   -0.253289
     5  S    1.168404
     6  O   -0.488536
     7  O   -0.389098
     8  O   -0.194216
 Electronic spatial extent (au):  <R**2>=            907.5589
 Charge=             -0.0000 electrons
 Dipole moment (field-independent basis, Debye):
    X=              0.1129    Y=              2.2961    Z=              0.1677  Tot=              2.3050
 Quadrupole moment (field-independent basis, Debye-Ang):
   XX=            -47.9515   YY=            -46.6450   ZZ=            -53.9539
   XY=              5.4325   XZ=             -0.3163   YZ=             -0.0733
 Traceless Quadrupole moment (field-independent basis, Debye-Ang):
   XX=              1.5653   YY=              2.8718   ZZ=             -4.4371
   XY=              5.4325   XZ=             -0.3163   YZ=             -0.0733
 Octapole moment (field-independent basis, Debye-Ang**2):
  XXX=             -9.4330  YYY=             13.5752  ZZZ=             -2.8886  XYY=              2.7269
  XXY=             13.4949  XXZ=             -0.9590  XZZ=            -11.9475  YZZ=             -0.9270
  YYZ=              2.7502  XYZ=             -0.3634
 Hexadecapole moment (field-independent basis, Debye-Ang**3):
 XXXX=           -479.1835 YYYY=           -196.8188 ZZZZ=           -213.8169 XXXY=             25.6478
 XXXZ=             -1.9233 YYYX=             27.1063 YYYZ=             -0.4535 ZZZX=             -4.3486
 ZZZY=              1.7065 XXYY=            -99.8138 XXZZ=           -128.7174 YYZZ=            -73.0659
 XXYZ=              0.1072 YYXZ=              3.1542 ZZXY=             -1.7580
 N-N= 5.526263907658D+02 E-N=-3.383971346499D+03  KE= 9.558364427444D+02
 Orbital energies and kinetic energies (alpha):
                                 1                 2
   1         O               -89.173025        120.981398
   2         O               -24.779988         37.083383
   3         O               -24.764122         37.083935
   4         O               -24.763200         37.084009
   5         O               -19.241574         29.032026
   6         O               -19.206172         29.025547
   7         O               -19.194376         29.028412
   8         O               -10.500473         15.902047
   9         O                -8.199228         18.523325
  10         O                -6.164347         17.520650
  11         O                -6.162750         17.509254
  12         O                -6.162529         17.515729
  13         O                -1.327777          3.299050
  14         O                -1.251167          3.823387
  15         O                -1.235284          3.852134
  16         O                -1.192288          2.756101
  17         O                -1.070152          2.926397
  18         O                -1.032793          2.832517
  19         O                -0.793704          2.550835
  20         O                -0.683181          2.918267
  21         O                -0.617286          2.675036
  22         O                -0.611285          2.682068
  23         O                -0.598754          2.549132
  24         O                -0.550308          2.556079
  25         O                -0.510647          2.646246
  26         O                -0.494260          2.865127
  27         O                -0.489249          3.157840
  28         O                -0.485201          3.038566
  29         O                -0.464730          2.237352
  30         O                -0.456556          3.329181
  31         O                -0.449468          3.365577
  32         O                -0.433104          3.521469
  33         O                -0.402449          2.254038
  34         O                -0.383134          2.482636
  35         O                -0.370899          2.396926
  36         O                -0.358741          2.425478
  37         O                -0.342976          2.487067
  38         V                -0.056003          2.018248
  39         V                -0.024807          2.898483
  40         V                 0.009738          3.468231
  41         V                 0.021460          2.776080
  42         V                 0.092333          3.513189
  43         V                 0.122103          3.163777
  44         V                 0.144944          3.915491
  45         V                 0.190475          3.091427
  46         V                 0.284468          2.129072
  47         V                 0.312021          1.940009
  48         V                 0.340098          2.199438
  49         V                 0.395399          2.755720
  50         V                 0.458928          2.518475
  51         V                 0.493369          2.524553
  52         V                 0.516545          2.405593
  53         V                 0.644783          2.213325
  54         V                 0.670286          2.736125
  55         V                 0.691358          2.551934
  56         V                 0.753807          2.596557
  57         V                 0.771862          2.573893
  58         V                 0.798833          2.784013
  59         V                 0.860494          3.129611
  60         V                 0.875702          2.630537
  61         V                 0.929148          3.051169
  62         V                 0.967519          3.293095
  63         V                 0.981564          3.289172
  64         V                 0.999538          3.634120
  65         V                 1.012965          3.660958
  66         V                 1.028628          3.370920
  67         V                 1.081560          3.538630
  68         V                 1.100077          3.650744
  69         V                 1.101838          3.929175
  70         V                 1.124737          3.676954
  71         V                 1.168250          3.525785
  72         V                 1.184871          3.568271
  73         V                 1.200880          4.524575
  74         V                 1.272459          3.253645
  75         V                 1.290170          4.400324
  76         V                 1.323187          3.763772
  77         V                 1.345221          2.898660
  78         V                 1.348669          2.909986
  79         V                 1.360735          3.466720
  80         V                 1.378841          3.707269
  81         V                 1.520637          3.121687
  82         V                 1.550573          2.952557
  83         V                 1.582431          3.434486
  84         V                 1.599946          3.398515
  85         V                 1.683293          3.127804
  86         V                 1.714672          2.906724
  87         V                 1.737396          3.028133
  88         V                 1.750866          2.998258
  89         V                 1.769740          3.038040
  90         V                 1.781250          3.020825
  91         V                 1.789943          2.930304
  92         V                 1.797196          3.001950
  93         V                 1.816172          3.187118
  94         V                 1.822480          2.911645
  95         V                 1.832202          3.157154
  96         V                 1.865184          3.235348
  97         V                 1.908714          3.248980
  98         V                 1.926413          3.443640
  99         V                 1.948686          3.654405
 100         V                 1.984287          3.564945
 101         V                 1.999483          3.547605
 102         V                 2.016010          3.764091
 103         V                 2.062028          3.740684
 104         V                 2.099739          3.591868
 105         V                 2.129416          3.709332
 106         V                 2.143640          3.664920
 107         V                 2.181530          3.697089
 108         V                 2.186533          3.893986
 109         V                 2.287840          3.886915
 110         V                 2.406410          4.680128
 111         V                 2.602929          4.106451
 112         V                 2.628135          4.061699
 113         V                 2.637980          4.314203
 114         V                 2.732308          4.832292
 115         V                 2.811569          5.125063
 116         V                 2.867822          6.204801
 117         V                 3.005367          5.769598
 118         V                 3.020985          5.745502
 119         V                 3.554873          9.998088
 120         V                 3.837830         10.707497
 121         V                 3.863645         11.565390
 122         V                 3.937415         11.743988
 123         V                 4.264570         11.630394
 124         V                 4.304631         10.236195
 125         V                 4.350384         11.830749
 126         V                 5.071427         13.958544
 Total kinetic energy from orbitals= 9.558364427444D+02
 Unable to Open any file for archive entry.
 1\1\GINC-SPARTAN-BM162\SP\RB3LYP\6-31G(d)\C1H1F3O3S1\AKHALILOV\20-Mar-
 2025\0\\# B3LYP/6-31G(d) pop=full density=current\\PFMS Time step 20\\
 0,1\C,0,-0.915901,0.012208,-0.231681\F,0,-1.06172,0.169755,-1.612062\F
 ,0,-1.571168,1.048802,0.355623\F,0,-1.664902,-1.138809,0.063629\S,0,0.
 85332,-0.165224,0.267075\O,0,1.005293,-0.173854,1.722034\O,0,1.547534,
 -1.06662,-0.541112\O,0,1.420636,1.34601,-0.175185\H,0,1.790353,1.91794
 4,0.809695\\Version=ES64L-G16RevC.01\State=1-A\HF=-961.9495118\RMSD=8.
 908e-09\Dipole=-0.0625079,0.8628624,0.271889\Quadrupole=0.2315701,2.12
 96022,-2.3611723,3.457336,1.6145228,2.2643098\PG=C01 [X(C1H1F3O3S1)]\\
 @
 The archive entry for this job was punched.


 GROWING OLD ISN'T SO BAD -- WHEN YOU CONSIDER THE ALTERNATIVE.

                     -- MAURICE CHEVALIER
 Job cpu time:       0 days  0 hours  0 minutes  9.8 seconds.
 Elapsed time:       0 days  0 hours  0 minutes  3.0 seconds.
 File lengths (MBytes):  RWF=     10 Int=      0 D2E=      0 Chk=      2 Scr=      1
 Normal termination of Gaussian 16 at Thu Mar 20 00:09:39 2025.
