PFMS Time step 35                                                       
SP        RB3LYP                                                      6-31G(d)            
Number of atoms                            I                9
Info1-9                                    I   N=           9
          18          18           0           0           0         110
           1          18        -502
Full Title                                 C   N=           2
PFMS Time step 35       
Route                                      C   N=           4
# B3LYP/6-31G(d) pop=full density=current       
Charge                                     I                0
Multiplicity                               I                1
Number of electrons                        I               74
Number of alpha electrons                  I               37
Number of beta electrons                   I               37
Number of basis functions                  I              126
Number of independent functions            I              126
Number of point charges in /Mol/           I                0
Number of translation vectors              I                0
Atomic numbers                             I   N=           9
           6           9           9           9          16           8
           8           8           1
Nuclear charges                            R   N=           9
  6.00000000E+00  9.00000000E+00  9.00000000E+00  9.00000000E+00  1.60000000E+01
  8.00000000E+00  8.00000000E+00  8.00000000E+00  1.00000000E+00
Current cartesian coordinates              R   N=          27
 -1.85728934E+00  1.12096166E-01  6.04130365E-02 -2.83177997E+00  1.51014023E-01
 -2.42852862E+00 -2.69083198E+00  2.22075137E+00  1.24042261E+00 -3.19040366E+00
 -1.94364504E+00  1.18880853E+00  1.59509363E+00 -4.20736288E-01  8.69745494E-02
  2.65583536E+00 -2.04030259E-01  2.64143856E+00  2.32869413E+00 -2.27766718E+00
 -1.54836170E+00  2.54929398E+00  2.31282490E+00 -1.33759751E+00  3.76879078E+00
  3.55710084E+00  1.95771554E-01
Number of symbols in /Mol/                 I                0
Int Atom Types                             I   N=           9
           0           0           0           0           0           0
           0           0           0
Force Field                                I                0
Atom Types                                 C   N=           9
                                                            
                                                
MM charges                                 R   N=           9
  0.00000000E+00  0.00000000E+00  0.00000000E+00  0.00000000E+00  0.00000000E+00
  0.00000000E+00  0.00000000E+00  0.00000000E+00  0.00000000E+00
Integer atomic weights                     I   N=           9
          12          19          19          19          32          16
          16          16           1
Real atomic weights                        R   N=           9
  1.20000000E+01  1.89984032E+01  1.89984032E+01  1.89984032E+01  3.19720718E+01
  1.59949146E+01  1.59949146E+01  1.59949146E+01  1.00782504E+00
Atom fragment info                         I   N=           9
           0           0           0           0           0           0
           0           0           0
Atom residue num                           I   N=           9
           0           0           0           0           0           0
           0           0           0
Nuclear spins                              I   N=           9
           0           1           1           1           0           0
           0           0           1
Nuclear ZEff                               R   N=           9
 -3.60000000E+00 -6.75000000E+00 -6.75000000E+00 -6.75000000E+00 -1.36000000E+01
 -5.60000000E+00 -5.60000000E+00 -5.60000000E+00 -1.00000000E+00
Nuclear ZNuc                               R   N=           9
  6.00000000E+00  9.00000000E+00  9.00000000E+00  9.00000000E+00  1.60000000E+01
  8.00000000E+00  8.00000000E+00  8.00000000E+00  1.00000000E+00
Nuclear QMom                               R   N=           9
  0.00000000E+00  0.00000000E+00  0.00000000E+00  0.00000000E+00  0.00000000E+00
  0.00000000E+00  0.00000000E+00  0.00000000E+00  0.00000000E+00
Nuclear GFac                               R   N=           9
  0.00000000E+00  2.62886700E+00  2.62886700E+00  2.62886700E+00  0.00000000E+00
  0.00000000E+00  0.00000000E+00  0.00000000E+00  2.79284600E+00
MicOpt                                     I   N=           9
          -1          -1          -1          -1          -1          -1
          -1          -1          -1
Number of residues                         I                0
Number of secondary structures             I                0
SymInf integers                            I   N=          26
           1           1           1           1           1           0
           0           0           0           0           0           0
           0           0           0           0           0           0
           0           0           0           0           0           0
           0           0
RotTr to input orientation                 R   N=          12
  9.60436829E-01  4.30808170E-02  2.75145670E-01 -6.99295634E-02  9.93616260E-01
  8.85244819E-02 -2.69575505E-01 -1.04262989E-01  9.57318273E-01  7.84035367E-02
  2.39305212E-02  2.60404005E-02
Number of contracted shells                I               35
Number of primitive shells                 I               98
Pure/Cartesian d shells                    I                1
Pure/Cartesian f shells                    I                0
Highest angular momentum                   I                2
Largest degree of contraction              I                6
Shell types                                I   N=          35
           0          -1          -1           2           0          -1
          -1           2           0          -1          -1           2
           0          -1          -1           2           0          -1
          -1          -1           2           0          -1          -1
           2           0          -1          -1           2           0
          -1          -1           2           0           0
Number of primitives per shell             I   N=          35
           6           3           1           1           6           3
           1           1           6           3           1           1
           6           3           1           1           6           6
           3           1           1           6           3           1
           1           6           3           1           1           6
           3           1           1           3           1
Shell to atom map                          I   N=          35
           1           1           1           1           2           2
           2           2           3           3           3           3
           4           4           4           4           5           5
           5           5           5           6           6           6
           6           7           7           7           7           8
           8           8           8           9           9
Primitive exponents                        R   N=          98
  3.04752488E+03  4.57369518E+02  1.03948685E+02  2.92101553E+01  9.28666296E+00
  3.16392696E+00  7.86827235E+00  1.88128854E+00  5.44249258E-01  1.68714478E-01
  8.00000000E-01  7.00171309E+03  1.05136609E+03  2.39285690E+02  6.73974453E+01
  2.15199573E+01  7.40310130E+00  2.08479528E+01  4.80830834E+00  1.34406986E+00
  3.58151393E-01  8.00000000E-01  7.00171309E+03  1.05136609E+03  2.39285690E+02
  6.73974453E+01  2.15199573E+01  7.40310130E+00  2.08479528E+01  4.80830834E+00
  1.34406986E+00  3.58151393E-01  8.00000000E-01  7.00171309E+03  1.05136609E+03
  2.39285690E+02  6.73974453E+01  2.15199573E+01  7.40310130E+00  2.08479528E+01
  4.80830834E+00  1.34406986E+00  3.58151393E-01  8.00000000E-01  2.19171000E+04
  3.30149000E+03  7.54146000E+02  2.12711000E+02  6.79896000E+01  2.30515000E+01
  4.23735000E+02  1.00710000E+02  3.21599000E+01  1.18079000E+01  4.63110000E+00
  1.87025000E+00  2.61584000E+00  9.22167000E-01  3.41287000E-01  1.17167000E-01
  6.50000000E-01  5.48467166E+03  8.25234946E+02  1.88046958E+02  5.29645000E+01
  1.68975704E+01  5.79963534E+00  1.55396162E+01  3.59993359E+00  1.01376175E+00
  2.70005823E-01  8.00000000E-01  5.48467166E+03  8.25234946E+02  1.88046958E+02
  5.29645000E+01  1.68975704E+01  5.79963534E+00  1.55396162E+01  3.59993359E+00
  1.01376175E+00  2.70005823E-01  8.00000000E-01  5.48467166E+03  8.25234946E+02
  1.88046958E+02  5.29645000E+01  1.68975704E+01  5.79963534E+00  1.55396162E+01
  3.59993359E+00  1.01376175E+00  2.70005823E-01  8.00000000E-01  1.87311370E+01
  2.82539436E+00  6.40121692E-01  1.61277759E-01
Contraction coefficients                   R   N=          98
  1.83473713E-03  1.40373228E-02  6.88426223E-02  2.32184443E-01  4.67941348E-01
  3.62311985E-01 -1.19332420E-01 -1.60854152E-01  1.14345644E+00  1.00000000E+00
  1.00000000E+00  1.81961690E-03  1.39160796E-02  6.84053245E-02  2.33185760E-01
  4.71267439E-01  3.56618546E-01 -1.08506975E-01 -1.46451658E-01  1.12868858E+00
  1.00000000E+00  1.00000000E+00  1.81961690E-03  1.39160796E-02  6.84053245E-02
  2.33185760E-01  4.71267439E-01  3.56618546E-01 -1.08506975E-01 -1.46451658E-01
  1.12868858E+00  1.00000000E+00  1.00000000E+00  1.81961690E-03  1.39160796E-02
  6.84053245E-02  2.33185760E-01  4.71267439E-01  3.56618546E-01 -1.08506975E-01
 -1.46451658E-01  1.12868858E+00  1.00000000E+00  1.00000000E+00  1.86924085E-03
  1.42303065E-02  6.96962317E-02  2.38487108E-01  4.83307220E-01  3.38074154E-01
 -2.37677050E-03 -3.16930067E-02 -1.13317024E-01  5.60900118E-02  5.92255124E-01
  4.55006095E-01 -2.50373114E-01  6.69567631E-02  1.05450627E+00  1.00000000E+00
  1.00000000E+00  1.83107443E-03  1.39501722E-02  6.84450781E-02  2.32714336E-01
  4.70192898E-01  3.58520853E-01 -1.10777550E-01 -1.48026263E-01  1.13076702E+00
  1.00000000E+00  1.00000000E+00  1.83107443E-03  1.39501722E-02  6.84450781E-02
  2.32714336E-01  4.70192898E-01  3.58520853E-01 -1.10777550E-01 -1.48026263E-01
  1.13076702E+00  1.00000000E+00  1.00000000E+00  1.83107443E-03  1.39501722E-02
  6.84450781E-02  2.32714336E-01  4.70192898E-01  3.58520853E-01 -1.10777550E-01
 -1.48026263E-01  1.13076702E+00  1.00000000E+00  1.00000000E+00  3.34946043E-02
  2.34726953E-01  8.13757326E-01  1.00000000E+00
P(S=P) Contraction coefficients            R   N=          98
  0.00000000E+00  0.00000000E+00  0.00000000E+00  0.00000000E+00  0.00000000E+00
  0.00000000E+00  6.89990666E-02  3.16423961E-01  7.44308291E-01  1.00000000E+00
  0.00000000E+00  0.00000000E+00  0.00000000E+00  0.00000000E+00  0.00000000E+00
  0.00000000E+00  0.00000000E+00  7.16287242E-02  3.45912103E-01  7.22469956E-01
  1.00000000E+00  0.00000000E+00  0.00000000E+00  0.00000000E+00  0.00000000E+00
  0.00000000E+00  0.00000000E+00  0.00000000E+00  7.16287242E-02  3.45912103E-01
  7.22469956E-01  1.00000000E+00  0.00000000E+00  0.00000000E+00  0.00000000E+00
  0.00000000E+00  0.00000000E+00  0.00000000E+00  0.00000000E+00  7.16287242E-02
  3.45912103E-01  7.22469956E-01  1.00000000E+00  0.00000000E+00  0.00000000E+00
  0.00000000E+00  0.00000000E+00  0.00000000E+00  0.00000000E+00  0.00000000E+00
  4.06100998E-03  3.06812999E-02  1.30451999E-01  3.27204999E-01  4.52850998E-01
  2.56041999E-01 -1.45104895E-02  3.10262776E-01  7.54482456E-01  1.00000000E+00
  0.00000000E+00  0.00000000E+00  0.00000000E+00  0.00000000E+00  0.00000000E+00
  0.00000000E+00  0.00000000E+00  7.08742682E-02  3.39752839E-01  7.27158577E-01
  1.00000000E+00  0.00000000E+00  0.00000000E+00  0.00000000E+00  0.00000000E+00
  0.00000000E+00  0.00000000E+00  0.00000000E+00  7.08742682E-02  3.39752839E-01
  7.27158577E-01  1.00000000E+00  0.00000000E+00  0.00000000E+00  0.00000000E+00
  0.00000000E+00  0.00000000E+00  0.00000000E+00  0.00000000E+00  7.08742682E-02
  3.39752839E-01  7.27158577E-01  1.00000000E+00  0.00000000E+00  0.00000000E+00
  0.00000000E+00  0.00000000E+00  0.00000000E+00
Coordinates of each shell                  R   N=         105
 -1.85728934E+00  1.12096166E-01  6.04130365E-02 -1.85728934E+00  1.12096166E-01
  6.04130365E-02 -1.85728934E+00  1.12096166E-01  6.04130365E-02 -1.85728934E+00
  1.12096166E-01  6.04130365E-02 -2.83177997E+00  1.51014023E-01 -2.42852862E+00
 -2.83177997E+00  1.51014023E-01 -2.42852862E+00 -2.83177997E+00  1.51014023E-01
 -2.42852862E+00 -2.83177997E+00  1.51014023E-01 -2.42852862E+00 -2.69083198E+00
  2.22075137E+00  1.24042261E+00 -2.69083198E+00  2.22075137E+00  1.24042261E+00
 -2.69083198E+00  2.22075137E+00  1.24042261E+00 -2.69083198E+00  2.22075137E+00
  1.24042261E+00 -3.19040366E+00 -1.94364504E+00  1.18880853E+00 -3.19040366E+00
 -1.94364504E+00  1.18880853E+00 -3.19040366E+00 -1.94364504E+00  1.18880853E+00
 -3.19040366E+00 -1.94364504E+00  1.18880853E+00  1.59509363E+00 -4.20736288E-01
  8.69745494E-02  1.59509363E+00 -4.20736288E-01  8.69745494E-02  1.59509363E+00
 -4.20736288E-01  8.69745494E-02  1.59509363E+00 -4.20736288E-01  8.69745494E-02
  1.59509363E+00 -4.20736288E-01  8.69745494E-02  2.65583536E+00 -2.04030259E-01
  2.64143856E+00  2.65583536E+00 -2.04030259E-01  2.64143856E+00  2.65583536E+00
 -2.04030259E-01  2.64143856E+00  2.65583536E+00 -2.04030259E-01  2.64143856E+00
  2.32869413E+00 -2.27766718E+00 -1.54836170E+00  2.32869413E+00 -2.27766718E+00
 -1.54836170E+00  2.32869413E+00 -2.27766718E+00 -1.54836170E+00  2.32869413E+00
 -2.27766718E+00 -1.54836170E+00  2.54929398E+00  2.31282490E+00 -1.33759751E+00
  2.54929398E+00  2.31282490E+00 -1.33759751E+00  2.54929398E+00  2.31282490E+00
 -1.33759751E+00  2.54929398E+00  2.31282490E+00 -1.33759751E+00  3.76879078E+00
  3.55710084E+00  1.95771554E-01  3.76879078E+00  3.55710084E+00  1.95771554E-01
Num ILSW                                   I              100
ILSW                                       I   N=         100
           0           1           0           0           2           0
           0           0           0           0         402          -1
           5           0           0           0           0           0
           0           0           1           0           0           0
           1           0           0           0           0           0
           0           0      100000           0          -1           0
           0           0           0           0           0           0
           0           0           0           1           0           0
           0 -2000000000           1           0           0           0
           0           0           4          52           0           0
           0           0           5           0           0           0
           0           0           0           0           0           1
           0           0           0           0           0           0
           0           0           0           0           0           0
           0           0           0           0           0           0
           0           0           0           0           0           0
           0           0           0           0
Num RLSW                                   I               52
RLSW                                       R   N=          52
  8.00000000E-01  7.20000000E-01  1.00000000E+00  8.10000000E-01  2.00000000E-01
  0.00000000E+00  0.00000000E+00  1.00000000E+00  0.00000000E+00  0.00000000E+00
  0.00000000E+00  0.00000000E+00  1.00000000E+00  0.00000000E+00  0.00000000E+00
  0.00000000E+00  0.00000000E+00  1.00000000E+00  0.00000000E+00  0.00000000E+00
  0.00000000E+00  0.00000000E+00  1.00000000E+00  0.00000000E+00  0.00000000E+00
  0.00000000E+00  0.00000000E+00  1.00000000E+00  0.00000000E+00  0.00000000E+00
  0.00000000E+00  0.00000000E+00  1.00000000E+00  0.00000000E+00  0.00000000E+00
  0.00000000E+00  0.00000000E+00  0.00000000E+00  1.00000000E+00  1.00000000E+00
  0.00000000E+00  1.00000000E+00  0.00000000E+00  0.00000000E+00  0.00000000E+00
  0.00000000E+00  0.00000000E+00  0.00000000E+00  0.00000000E+00  0.00000000E+00
  0.00000000E+00  0.00000000E+00
MxBond                                     I                4
NBond                                      I   N=           9
           4           1           1           1           4           1
           1           1           0
IBond                                      I   N=          36
           2           3           4           5           1           0
           0           0           1           0           0           0
           1           0           0           0           1           6
           7           8           5           0           0           0
           5           0           0           0           5           0
           0           0           0           0           0           0
RBond                                      R   N=          36
  1.00000000E+00  1.00000000E+00  1.00000000E+00  1.00000000E+00  1.00000000E+00
  0.00000000E+00  0.00000000E+00  0.00000000E+00  1.00000000E+00  0.00000000E+00
  0.00000000E+00  0.00000000E+00  1.00000000E+00  0.00000000E+00  0.00000000E+00
  0.00000000E+00  1.00000000E+00  2.00000000E+00  3.00000000E+00  1.00000000E+00
  2.00000000E+00  0.00000000E+00  0.00000000E+00  0.00000000E+00  3.00000000E+00
  0.00000000E+00  0.00000000E+00  0.00000000E+00  1.00000000E+00  0.00000000E+00
  0.00000000E+00  0.00000000E+00  0.00000000E+00  0.00000000E+00  0.00000000E+00
  0.00000000E+00
Virial Ratio                               R      2.006383665099483E+00
SCF Energy                                 R     -9.619308116572969E+02
Total Energy                               R     -9.619308116572969E+02
RMS Density                                R      5.099196622209542E-09
Job Status                                 I                1
Nuclear derivative order                   I                0
External E-field                           R   N=          35
  0.00000000E+00  0.00000000E+00  0.00000000E+00  0.00000000E+00  0.00000000E+00
  0.00000000E+00  0.00000000E+00  0.00000000E+00  0.00000000E+00  0.00000000E+00
  0.00000000E+00  0.00000000E+00  0.00000000E+00  0.00000000E+00  0.00000000E+00
  0.00000000E+00  0.00000000E+00  0.00000000E+00  0.00000000E+00  0.00000000E+00
  0.00000000E+00  0.00000000E+00  0.00000000E+00  0.00000000E+00  0.00000000E+00
  0.00000000E+00  0.00000000E+00  0.00000000E+00  0.00000000E+00  0.00000000E+00
  0.00000000E+00  0.00000000E+00  0.00000000E+00  0.00000000E+00  0.00000000E+00
IOpCl                                      I                0
IROHF                                      I                0
Alpha Orbital Energies                     R   N=         126
 -8.91726960E+01 -2.47859947E+01 -2.47606594E+01 -2.47576224E+01 -1.92374531E+01
 -1.92118859E+01 -1.91962010E+01 -1.05015867E+01 -8.19998102E+00 -6.16481406E+00
 -6.16368666E+00 -6.16312824E+00 -1.32549401E+00 -1.24925391E+00 -1.22552412E+00
 -1.20349116E+00 -1.07430876E+00 -1.02030877E+00 -7.93721725E-01 -6.80930414E-01
 -6.15344024E-01 -6.06528105E-01 -5.93902964E-01 -5.51058909E-01 -5.11924170E-01
 -4.97306920E-01 -4.87387457E-01 -4.81013390E-01 -4.61843535E-01 -4.55338346E-01
 -4.45132953E-01 -4.29205797E-01 -4.04864588E-01 -3.89722910E-01 -3.69780670E-01
 -3.56587729E-01 -3.44186904E-01 -6.14399100E-02 -3.22089008E-02  1.14349138E-03
  1.77221927E-02  8.65085262E-02  1.14905526E-01  1.37019211E-01  1.92473449E-01
  2.84801062E-01  3.10930365E-01  3.37994084E-01  4.01753614E-01  4.57762375E-01
  4.97070812E-01  5.18532687E-01  6.47507073E-01  6.68817477E-01  6.89192331E-01
  7.50178478E-01  7.60224142E-01  7.98240699E-01  8.59554641E-01  8.73163837E-01
  9.27336660E-01  9.66983489E-01  9.74727436E-01  9.98595763E-01  1.01206350E+00
  1.03656760E+00  1.08039145E+00  1.09507493E+00  1.10032047E+00  1.13060538E+00
  1.16929454E+00  1.18528101E+00  1.22736225E+00  1.27048446E+00  1.28877597E+00
  1.32426474E+00  1.34656473E+00  1.35242357E+00  1.35887583E+00  1.38022150E+00
  1.52434519E+00  1.54940738E+00  1.57420484E+00  1.60146611E+00  1.68747661E+00
  1.71104158E+00  1.73252645E+00  1.74919369E+00  1.76817218E+00  1.78435353E+00
  1.78795245E+00  1.79750273E+00  1.81284233E+00  1.82584085E+00  1.83192147E+00
  1.86303096E+00  1.90343373E+00  1.92041425E+00  1.94411711E+00  1.97095864E+00
  1.98630096E+00  2.00898550E+00  2.05221990E+00  2.09043425E+00  2.11027608E+00
  2.14240506E+00  2.17076705E+00  2.18377330E+00  2.29335399E+00  2.37285282E+00
  2.57187234E+00  2.61509436E+00  2.64115528E+00  2.72683224E+00  2.81824005E+00
  2.85251905E+00  3.00269729E+00  3.02606459E+00  3.54603058E+00  3.84732074E+00
  3.85821499E+00  3.94016945E+00  4.23454263E+00  4.28678380E+00  4.34254355E+00
  5.06184801E+00
Alpha MO coefficients                      R   N=       15876
 -2.50147906E-05 -6.79080239E-05  5.08175217E-05 -7.70581422E-07  4.69214959E-06
  8.01229540E-04  3.70969275E-04 -1.28454603E-04 -4.82649939E-05 -4.24297565E-05
 -4.67970269E-06 -3.30197232E-06  1.90966819E-05  2.48962015E-06  2.32276622E-06
  1.94119538E-05  1.17471913E-04  1.17791237E-05 -5.13301259E-06 -3.52015517E-06
 -4.33273810E-04 -1.33099213E-04  3.44425379E-05 -6.33596968E-05  6.52543372E-05
  5.60193305E-05  7.44601603E-05  1.16989470E-06 -2.96742133E-05  9.53924670E-06
  1.38051926E-05  8.46835799E-05  1.62077923E-05  2.97714240E-06  3.16708095E-06
 -2.94350007E-04 -1.34659686E-04  4.20812404E-05  1.23589994E-05  3.99957799E-05
  5.23629999E-05  4.62541335E-05  2.97226234E-05  1.70511443E-05  1.16772222E-05
  2.18946598E-05  1.30916369E-04  1.50513140E-05 -6.57414321E-06 -4.58421948E-07
 -4.68838668E-04 -1.54258489E-04 -2.62727199E-05  4.06329373E-05  6.47573921E-05
  9.14865149E-05  6.97767414E-05 -2.32166425E-05  1.56853291E-05 -7.34598155E-06
  9.96122348E-01  1.48651700E-02 -1.36372960E-05  1.95573101E-05 -1.33593000E-05
 -2.41283247E-02  8.39028726E-05 -6.48733332E-05  2.61811515E-05  1.53057360E-03
 -2.99811541E-05 -4.50818058E-05  7.59969191E-05  8.48705176E-03  8.56553020E-03
  8.61966270E-03 -1.51478865E-05  6.00280583E-06  4.95400483E-05  1.48046273E-05
  4.75425672E-06  3.45603456E-05  1.09519351E-05  1.12420004E-04  3.94936760E-04
 -6.89510006E-05 -2.16733274E-05 -2.89978826E-04  5.18888165E-06  5.45153326E-05
 -1.69474730E-04 -6.85836634E-06 -1.20292465E-04 -2.01015023E-05  1.16659785E-05
 -5.97665709E-05  4.37018474E-05 -1.42747233E-04 -1.25701622E-04  4.94341752E-04
 -4.26191441E-05  2.45873143E-04  2.03064056E-04  3.27394958E-05 -6.59019894E-05
 -3.48412960E-05  6.96203681E-05  5.84808403E-05 -1.33139106E-04 -1.61836931E-05
 -2.18979920E-05 -2.65291579E-05 -2.82509727E-05 -2.76133974E-06  5.37423874E-04
 -1.75860854E-05 -2.32055434E-04  1.88584427E-04 -5.68948389E-05 -1.01323205E-04
 -5.23976962E-05 -1.72862326E-05  2.87340278E-05  4.90171685E-05 -5.82125804E-05
 -8.15174879E-05 -3.16342149E-05  6.38822060E-05 -3.09554460E-04  5.43314632E-04
  2.89357833E-04  3.85332490E-04  4.89040533E-04 -1.86299115E-04 -1.67373034E-05
  6.02301709E-05  3.47822649E-04  1.18701747E-04 -1.63720623E-04 -9.94210193E-05
  2.12076458E-04  4.16990407E-05  6.99507398E-05  1.42652630E-06  1.10974294E-05
  2.11513396E-05 -7.72341326E-05 -2.19817788E-05 -7.25646735E-05 -1.22229039E-04
  4.99372173E-05 -9.63035605E-06 -6.76027539E-05  1.24010214E-05 -1.99648794E-05
 -8.23372104E-05  9.93012517E-01  1.97285232E-02  2.77877374E-04 -6.39390107E-04
 -3.56228901E-04  1.47316797E-02 -1.67000589E-04  4.56169006E-04  2.47541562E-04
 -7.97175476E-03 -8.28171989E-03 -8.05218630E-03  1.63155264E-04  9.33867261E-05
 -2.09813101E-04  3.78311232E-05  1.00231099E-04  6.30616291E-06  2.31010539E-05
  1.15597429E-06 -1.88174619E-04 -5.16713961E-05 -1.56502394E-04 -1.18834420E-05
  5.97038649E-05 -9.41370629E-05  6.49283418E-05 -2.73066195E-05  1.81618337E-05
 -1.94755887E-05  3.05681867E-06  5.46315175E-05  6.49628497E-06 -6.61566188E-07
  8.87912440E-07  2.19480665E-04 -8.82204607E-05  3.07577964E-05 -2.77038609E-05
 -1.44524680E-03  4.48504463E-04 -6.99924379E-04 -3.08184265E-04  3.29137772E-05
  4.93586527E-05  1.85223072E-05 -1.33405620E-05 -5.46471349E-06  1.58955723E-06
 -4.14684054E-05 -1.83765392E-04  2.57344796E-05 -2.13193775E-05  1.37063230E-05
  9.35906207E-04 -2.05093379E-04  1.36560675E-04 -1.84334058E-04 -1.08188199E-04
 -1.24823593E-04 -1.17955239E-04 -1.25461014E-05  2.31574533E-05 -2.44442818E-05
  1.17110149E-05  3.98119877E-05  9.58808496E-06 -1.08019058E-05  5.74575317E-06
 -2.16571979E-04 -4.55693893E-05  6.37186452E-05 -2.72646868E-05  3.42574818E-05
  4.65723449E-05  3.15579237E-05 -2.14702387E-06  2.65190930E-06 -3.67450846E-06
 -2.86894873E-05 -1.41223509E-04  1.13118971E-05  1.72999430E-05 -1.15710626E-05
  7.04225626E-04 -1.46525393E-04 -1.60342544E-04  1.49935629E-04 -7.41521230E-05
 -8.99476012E-05 -5.99760141E-05  1.43067468E-05 -1.66789788E-05 -1.22300362E-05
 -2.49072585E-05  1.01953564E-04 -3.10253855E-05 -1.43911268E-04 -2.75849875E-04
  3.57217305E-05 -4.88310821E-04  2.51939771E-04  4.42132799E-04 -1.24523579E-04
 -6.38168359E-05  1.31146572E-04  5.22320414E-05  5.67425639E-04  1.64254337E-06
  2.66781412E-04 -8.71316657E-06  9.93026842E-01  1.97326989E-02  2.74306202E-04
 -1.94178963E-06  6.54406018E-04  1.46218130E-02 -1.45218549E-04  8.08118916E-06
 -4.55533462E-04 -7.95501204E-03 -7.93030054E-03 -8.30932861E-03 -5.48315216E-07
 -1.90595105E-04  1.14449188E-05 -4.22937071E-05  3.82681977E-05  7.02914313E-07
 -1.10454995E-05 -2.59806886E-05  6.28857916E-05 -6.15433298E-06  3.40188712E-05
  1.39571682E-04  3.17963535E-05 -2.88355937E-06 -1.06127747E-04  2.33534166E-05
 -1.64757655E-05 -6.76267693E-05  2.20659934E-04  7.26107788E-05  2.57206873E-06
  6.75906704E-06 -2.57241043E-05 -6.91868242E-05 -1.79913389E-05 -2.96672091E-05
  1.61259603E-04  4.18785137E-05  3.11482367E-05 -9.38035604E-05 -1.90062880E-05
  3.01100253E-06  7.32840806E-05  2.60877803E-06  4.87734554E-05  7.20360163E-06
 -3.49749167E-07 -3.58987967E-06  1.86038470E-04 -9.20491474E-05  3.60214051E-05
  2.28300643E-05 -1.31803547E-03  5.16779338E-04 -1.20406299E-04  7.99466676E-04
  3.81599577E-05  4.16906230E-05  3.71780366E-05 -1.23195486E-05  4.09523509E-06
 -6.89105530E-06  1.89624821E-05  7.11002447E-05  9.91513109E-06 -9.30141925E-06
 -2.98264880E-06 -3.86931765E-04 -3.40007773E-05  4.82362284E-05  1.43228189E-05
  5.85175070E-05  5.79650775E-05  5.93368051E-05 -3.22557170E-06  1.03690076E-06
 -6.90284514E-06 -3.89504539E-05 -1.80669176E-04  1.26867852E-05 -1.90081581E-05
  1.14345356E-05  9.63055682E-04 -1.70201150E-04  2.21955665E-04 -2.67676996E-05
 -1.00413574E-04 -8.71098634E-05 -1.31965569E-04 -1.78347998E-05 -4.97997687E-06
 -1.32813428E-05 -3.41460222E-05 -1.54645266E-04  1.06372804E-05  2.20279779E-05
  5.55210153E-06  7.71420175E-04 -1.39338496E-04 -2.15072183E-04 -1.10981505E-05
 -9.18612605E-05 -8.12942768E-05 -1.11679471E-04  2.60740044E-05 -2.43365607E-06
  1.40198697E-05 -6.04985045E-06  5.12149420E-06 -2.29175324E-05 -1.51110787E-04
 -3.22239132E-04 -3.68871902E-04  2.20559438E-04  3.77953757E-05  3.77183751E-04
  3.06527785E-05 -5.41628916E-05  2.22759111E-04  4.13258723E-04  1.72084267E-04
  2.90552121E-04 -1.62551890E-04 -2.09024980E-04 -2.18049569E-04  4.66677358E-05
 -6.51861302E-06 -1.52973012E-05  1.91850347E-05 -1.69184742E-05  2.96512799E-05
  9.80838584E-05 -1.01175448E-04  3.56056105E-05 -1.61112857E-05 -6.46088582E-05
 -2.84570111E-05  8.24109358E-06  8.84393581E-05 -2.83014186E-05  6.51421106E-05
 -2.85376185E-06 -2.60141420E-05  1.87802666E-07 -4.07465176E-05  1.14139959E-05
  1.43444614E-04 -1.80649404E-05  4.01299288E-05 -1.11199577E-04  4.16389323E-05
 -2.07744401E-05  2.89019727E-05  8.90037666E-06  9.93025982E-01  1.97084892E-02
  3.68556096E-04  5.15771041E-04 -2.73469764E-04  1.47273567E-02 -1.97535177E-04
 -3.21539187E-04  1.69679940E-04 -8.01880489E-03 -8.17421682E-03 -8.00573821E-03
 -1.97809174E-04  1.06365846E-04  1.54617561E-04  1.01739238E-06  2.65245506E-05
  9.78992499E-06 -1.47257883E-06 -8.09783013E-07  7.62495613E-05 -1.21862524E-04
  2.49252961E-05  1.22331706E-05 -1.02371630E-03  4.88300913E-04  2.34670174E-04
 -1.08841728E-04  2.70195051E-05  4.36986680E-05  1.97791519E-05 -3.03640445E-06
 -6.33411022E-06 -2.41894940E-05 -2.58031605E-05 -1.09299136E-04  3.04555239E-05
  1.45469360E-05  6.73815044E-06  5.22733829E-04 -1.77961788E-04 -7.97406676E-05
 -9.62917124E-05 -6.89108317E-05 -7.86223457E-05 -7.84223957E-05  1.03220258E-05
  2.22208510E-05  9.12599758E-06 -3.00848037E-05 -1.30287787E-04  2.96224020E-05
  2.92209968E-06 -1.71726453E-05  6.43170926E-04 -1.82369727E-04  4.98580849E-05
  1.46244851E-04 -8.48418280E-05 -9.47785822E-05 -7.92694626E-05 -1.41207233E-05
 -2.12276377E-05  5.88294587E-06  3.79977707E-07  6.03963659E-07  1.28665202E-05
 -4.64004708E-06  1.66302201E-06  5.50314478E-06 -6.64316519E-05 -1.02912895E-06
  3.24403733E-06  4.73616478E-06 -1.06662267E-06  2.72530568E-06  9.29694873E-06
 -4.31882287E-06  2.56583240E-06  5.61409322E-06 -1.62549609E-05 -2.51276916E-05
 -1.62547066E-04  3.49610001E-05  3.48842440E-06  1.51400913E-05  1.02923079E-03
  4.83228790E-04 -6.32035410E-04 -1.16734844E-04  5.16941080E-05 -2.31382563E-05
 -2.28034147E-05  3.78584066E-05 -1.35648023E-05 -3.09767761E-05 -3.68991835E-05
 -1.92516481E-04 -3.63490546E-05 -1.03661529E-05 -2.56412718E-06  5.45296762E-04
  1.19776660E-04  9.77688267E-05 -5.16037868E-06 -1.06131625E-04 -1.81786456E-04
 -1.61822572E-04  8.76339508E-06 -4.37293347E-06  2.90088505E-05 -4.94688200E-05
 -2.81386547E-04 -1.63428992E-05  1.05698419E-05  8.82253710E-06  9.72760445E-04
  9.57309963E-05 -8.43166479E-05 -9.82317178E-05 -1.64323463E-04 -1.96548611E-04
 -1.96715547E-04 -4.02409501E-06 -1.41132668E-05  1.75515922E-05  4.33473706E-05
  2.44277425E-04  3.28520600E-05  8.33620398E-06 -1.64190503E-05 -8.65775490E-04