PFMS Time step 20                                                       
SP        RB3LYP                                                      6-31G(d)            
Number of atoms                            I                9
Info1-9                                    I   N=           9
          18          18           0           0           0         110
           1          18        -502
Full Title                                 C   N=           2
PFMS Time step 20       
Route                                      C   N=           4
# B3LYP/6-31G(d) pop=full density=current       
Charge                                     I                0
Multiplicity                               I                1
Number of electrons                        I               74
Number of alpha electrons                  I               37
Number of beta electrons                   I               37
Number of basis functions                  I              126
Number of independent functions            I              126
Number of point charges in /Mol/           I                0
Number of translation vectors              I                0
Atomic numbers                             I   N=           9
           6           9           9           9          16           8
           8           8           1
Nuclear charges                            R   N=           9
  6.00000000E+00  9.00000000E+00  9.00000000E+00  9.00000000E+00  1.60000000E+01
  8.00000000E+00  8.00000000E+00  8.00000000E+00  1.00000000E+00
Current cartesian coordinates              R   N=          27
 -1.86546080E+00  7.48193638E-02  3.33605415E-02 -2.83459869E+00 -1.80819831E-01
 -2.40886830E+00 -2.68339519E+00  2.34053150E+00  9.27685024E-01 -3.14858138E+00
 -1.77639019E+00  1.43782359E+00  1.59441621E+00 -3.70441632E-01  1.31803834E-01
  2.62312870E+00  1.88139634E-01  2.63621746E+00  2.37761743E+00 -2.48676581E+00
 -1.23304922E+00  2.49514897E+00  2.11426669E+00 -1.60555630E+00  3.71412201E+00
  3.50313252E+00 -2.99682836E-01
Number of symbols in /Mol/                 I                0
Int Atom Types                             I   N=           9
           0           0           0           0           0           0
           0           0           0
Force Field                                I                0
Atom Types                                 C   N=           9
                                                            
                                                
MM charges                                 R   N=           9
  0.00000000E+00  0.00000000E+00  0.00000000E+00  0.00000000E+00  0.00000000E+00
  0.00000000E+00  0.00000000E+00  0.00000000E+00  0.00000000E+00
Integer atomic weights                     I   N=           9
          12          19          19          19          32          16
          16          16           1
Real atomic weights                        R   N=           9
  1.20000000E+01  1.89984032E+01  1.89984032E+01  1.89984032E+01  3.19720718E+01
  1.59949146E+01  1.59949146E+01  1.59949146E+01  1.00782504E+00
Atom fragment info                         I   N=           9
           0           0           0           0           0           0
           0           0           0
Atom residue num                           I   N=           9
           0           0           0           0           0           0
           0           0           0
Nuclear spins                              I   N=           9
           0           1           1           1           0           0
           0           0           1
Nuclear ZEff                               R   N=           9
 -3.60000000E+00 -6.75000000E+00 -6.75000000E+00 -6.75000000E+00 -1.36000000E+01
 -5.60000000E+00 -5.60000000E+00 -5.60000000E+00 -1.00000000E+00
Nuclear ZNuc                               R   N=           9
  6.00000000E+00  9.00000000E+00  9.00000000E+00  9.00000000E+00  1.60000000E+01
  8.00000000E+00  8.00000000E+00  8.00000000E+00  1.00000000E+00
Nuclear QMom                               R   N=           9
  0.00000000E+00  0.00000000E+00  0.00000000E+00  0.00000000E+00  0.00000000E+00
  0.00000000E+00  0.00000000E+00  0.00000000E+00  0.00000000E+00
Nuclear GFac                               R   N=           9
  0.00000000E+00  2.62886700E+00  2.62886700E+00  2.62886700E+00  0.00000000E+00
  0.00000000E+00  0.00000000E+00  0.00000000E+00  2.79284600E+00
MicOpt                                     I   N=           9
          -1          -1          -1          -1          -1          -1
          -1          -1          -1
Number of residues                         I                0
Number of secondary structures             I                0
SymInf integers                            I   N=          26
           1           1           1           1           1           0
           0           0           0           0           0           0
           0           0           0           0           0           0
           0           0           0           0           0           0
           0           0
RotTr to input orientation                 R   N=          12
  9.61110514E-01  3.47780895E-02  2.73965444E-01 -9.75866896E-02  9.70807570E-01
  2.19110702E-01 -2.58347476E-01 -2.37324980E-01  9.36447241E-01  7.80319246E-02
  2.32290243E-02  2.56240478E-02
Number of contracted shells                I               35
Number of primitive shells                 I               98
Pure/Cartesian d shells                    I                1
Pure/Cartesian f shells                    I                0
Highest angular momentum                   I                2
Largest degree of contraction              I                6
Shell types                                I   N=          35
           0          -1          -1           2           0          -1
          -1           2           0          -1          -1           2
           0          -1          -1           2           0          -1
          -1          -1           2           0          -1          -1
           2           0          -1          -1           2           0
          -1          -1           2           0           0
Number of primitives per shell             I   N=          35
           6           3           1           1           6           3
           1           1           6           3           1           1
           6           3           1           1           6           6
           3           1           1           6           3           1
           1           6           3           1           1           6
           3           1           1           3           1
Shell to atom map                          I   N=          35
           1           1           1           1           2           2
           2           2           3           3           3           3
           4           4           4           4           5           5
           5           5           5           6           6           6
           6           7           7           7           7           8
           8           8           8           9           9
Primitive exponents                        R   N=          98
  3.04752488E+03  4.57369518E+02  1.03948685E+02  2.92101553E+01  9.28666296E+00
  3.16392696E+00  7.86827235E+00  1.88128854E+00  5.44249258E-01  1.68714478E-01
  8.00000000E-01  7.00171309E+03  1.05136609E+03  2.39285690E+02  6.73974453E+01
  2.15199573E+01  7.40310130E+00  2.08479528E+01  4.80830834E+00  1.34406986E+00
  3.58151393E-01  8.00000000E-01  7.00171309E+03  1.05136609E+03  2.39285690E+02
  6.73974453E+01  2.15199573E+01  7.40310130E+00  2.08479528E+01  4.80830834E+00
  1.34406986E+00  3.58151393E-01  8.00000000E-01  7.00171309E+03  1.05136609E+03
  2.39285690E+02  6.73974453E+01  2.15199573E+01  7.40310130E+00  2.08479528E+01
  4.80830834E+00  1.34406986E+00  3.58151393E-01  8.00000000E-01  2.19171000E+04
  3.30149000E+03  7.54146000E+02  2.12711000E+02  6.79896000E+01  2.30515000E+01
  4.23735000E+02  1.00710000E+02  3.21599000E+01  1.18079000E+01  4.63110000E+00
  1.87025000E+00  2.61584000E+00  9.22167000E-01  3.41287000E-01  1.17167000E-01
  6.50000000E-01  5.48467166E+03  8.25234946E+02  1.88046958E+02  5.29645000E+01
  1.68975704E+01  5.79963534E+00  1.55396162E+01  3.59993359E+00  1.01376175E+00
  2.70005823E-01  8.00000000E-01  5.48467166E+03  8.25234946E+02  1.88046958E+02
  5.29645000E+01  1.68975704E+01  5.79963534E+00  1.55396162E+01  3.59993359E+00
  1.01376175E+00  2.70005823E-01  8.00000000E-01  5.48467166E+03  8.25234946E+02
  1.88046958E+02  5.29645000E+01  1.68975704E+01  5.79963534E+00  1.55396162E+01
  3.59993359E+00  1.01376175E+00  2.70005823E-01  8.00000000E-01  1.87311370E+01
  2.82539436E+00  6.40121692E-01  1.61277759E-01
Contraction coefficients                   R   N=          98
  1.83473713E-03  1.40373228E-02  6.88426223E-02  2.32184443E-01  4.67941348E-01
  3.62311985E-01 -1.19332420E-01 -1.60854152E-01  1.14345644E+00  1.00000000E+00
  1.00000000E+00  1.81961690E-03  1.39160796E-02  6.84053245E-02  2.33185760E-01
  4.71267439E-01  3.56618546E-01 -1.08506975E-01 -1.46451658E-01  1.12868858E+00
  1.00000000E+00  1.00000000E+00  1.81961690E-03  1.39160796E-02  6.84053245E-02
  2.33185760E-01  4.71267439E-01  3.56618546E-01 -1.08506975E-01 -1.46451658E-01
  1.12868858E+00  1.00000000E+00  1.00000000E+00  1.81961690E-03  1.39160796E-02
  6.84053245E-02  2.33185760E-01  4.71267439E-01  3.56618546E-01 -1.08506975E-01
 -1.46451658E-01  1.12868858E+00  1.00000000E+00  1.00000000E+00  1.86924085E-03
  1.42303065E-02  6.96962317E-02  2.38487108E-01  4.83307220E-01  3.38074154E-01
 -2.37677050E-03 -3.16930067E-02 -1.13317024E-01  5.60900118E-02  5.92255124E-01
  4.55006095E-01 -2.50373114E-01  6.69567631E-02  1.05450627E+00  1.00000000E+00
  1.00000000E+00  1.83107443E-03  1.39501722E-02  6.84450781E-02  2.32714336E-01
  4.70192898E-01  3.58520853E-01 -1.10777550E-01 -1.48026263E-01  1.13076702E+00
  1.00000000E+00  1.00000000E+00  1.83107443E-03  1.39501722E-02  6.84450781E-02
  2.32714336E-01  4.70192898E-01  3.58520853E-01 -1.10777550E-01 -1.48026263E-01
  1.13076702E+00  1.00000000E+00  1.00000000E+00  1.83107443E-03  1.39501722E-02
  6.84450781E-02  2.32714336E-01  4.70192898E-01  3.58520853E-01 -1.10777550E-01
 -1.48026263E-01  1.13076702E+00  1.00000000E+00  1.00000000E+00  3.34946043E-02
  2.34726953E-01  8.13757326E-01  1.00000000E+00
P(S=P) Contraction coefficients            R   N=          98
  0.00000000E+00  0.00000000E+00  0.00000000E+00  0.00000000E+00  0.00000000E+00
  0.00000000E+00  6.89990666E-02  3.16423961E-01  7.44308291E-01  1.00000000E+00
  0.00000000E+00  0.00000000E+00  0.00000000E+00  0.00000000E+00  0.00000000E+00
  0.00000000E+00  0.00000000E+00  7.16287242E-02  3.45912103E-01  7.22469956E-01
  1.00000000E+00  0.00000000E+00  0.00000000E+00  0.00000000E+00  0.00000000E+00
  0.00000000E+00  0.00000000E+00  0.00000000E+00  7.16287242E-02  3.45912103E-01
  7.22469956E-01  1.00000000E+00  0.00000000E+00  0.00000000E+00  0.00000000E+00
  0.00000000E+00  0.00000000E+00  0.00000000E+00  0.00000000E+00  7.16287242E-02
  3.45912103E-01  7.22469956E-01  1.00000000E+00  0.00000000E+00  0.00000000E+00
  0.00000000E+00  0.00000000E+00  0.00000000E+00  0.00000000E+00  0.00000000E+00
  4.06100998E-03  3.06812999E-02  1.30451999E-01  3.27204999E-01  4.52850998E-01
  2.56041999E-01 -1.45104895E-02  3.10262776E-01  7.54482456E-01  1.00000000E+00
  0.00000000E+00  0.00000000E+00  0.00000000E+00  0.00000000E+00  0.00000000E+00
  0.00000000E+00  0.00000000E+00  7.08742682E-02  3.39752839E-01  7.27158577E-01
  1.00000000E+00  0.00000000E+00  0.00000000E+00  0.00000000E+00  0.00000000E+00
  0.00000000E+00  0.00000000E+00  0.00000000E+00  7.08742682E-02  3.39752839E-01
  7.27158577E-01  1.00000000E+00  0.00000000E+00  0.00000000E+00  0.00000000E+00
  0.00000000E+00  0.00000000E+00  0.00000000E+00  0.00000000E+00  7.08742682E-02
  3.39752839E-01  7.27158577E-01  1.00000000E+00  0.00000000E+00  0.00000000E+00
  0.00000000E+00  0.00000000E+00  0.00000000E+00
Coordinates of each shell                  R   N=         105
 -1.86546080E+00  7.48193638E-02  3.33605415E-02 -1.86546080E+00  7.48193638E-02
  3.33605415E-02 -1.86546080E+00  7.48193638E-02  3.33605415E-02 -1.86546080E+00
  7.48193638E-02  3.33605415E-02 -2.83459869E+00 -1.80819831E-01 -2.40886830E+00
 -2.83459869E+00 -1.80819831E-01 -2.40886830E+00 -2.83459869E+00 -1.80819831E-01
 -2.40886830E+00 -2.83459869E+00 -1.80819831E-01 -2.40886830E+00 -2.68339519E+00
  2.34053150E+00  9.27685024E-01 -2.68339519E+00  2.34053150E+00  9.27685024E-01
 -2.68339519E+00  2.34053150E+00  9.27685024E-01 -2.68339519E+00  2.34053150E+00
  9.27685024E-01 -3.14858138E+00 -1.77639019E+00  1.43782359E+00 -3.14858138E+00
 -1.77639019E+00  1.43782359E+00 -3.14858138E+00 -1.77639019E+00  1.43782359E+00
 -3.14858138E+00 -1.77639019E+00  1.43782359E+00  1.59441621E+00 -3.70441632E-01
  1.31803834E-01  1.59441621E+00 -3.70441632E-01  1.31803834E-01  1.59441621E+00
 -3.70441632E-01  1.31803834E-01  1.59441621E+00 -3.70441632E-01  1.31803834E-01
  1.59441621E+00 -3.70441632E-01  1.31803834E-01  2.62312870E+00  1.88139634E-01
  2.63621746E+00  2.62312870E+00  1.88139634E-01  2.63621746E+00  2.62312870E+00
  1.88139634E-01  2.63621746E+00  2.62312870E+00  1.88139634E-01  2.63621746E+00
  2.37761743E+00 -2.48676581E+00 -1.23304922E+00  2.37761743E+00 -2.48676581E+00
 -1.23304922E+00  2.37761743E+00 -2.48676581E+00 -1.23304922E+00  2.37761743E+00
 -2.48676581E+00 -1.23304922E+00  2.49514897E+00  2.11426669E+00 -1.60555630E+00
  2.49514897E+00  2.11426669E+00 -1.60555630E+00  2.49514897E+00  2.11426669E+00
 -1.60555630E+00  2.49514897E+00  2.11426669E+00 -1.60555630E+00  3.71412201E+00
  3.50313252E+00 -2.99682836E-01  3.71412201E+00  3.50313252E+00 -2.99682836E-01
Num ILSW                                   I              100
ILSW                                       I   N=         100
           0           1           0           0           2           0
           0           0           0           0         402          -1
           5           0           0           0           0           0
           0           0           1           0           0           0
           1           0           0           0           0           0
           0           0      100000           0          -1           0
           0           0           0           0           0           0
           0           0           0           1           0           0
           0 -2000000000           1           0           0           0
           0           0           4          52           0           0
           0           0           5           0           0           0
           0           0           0           0           0           1
           0           0           0           0           0           0
           0           0           0           0           0           0
           0           0           0           0           0           0
           0           0           0           0           0           0
           0           0           0           0
Num RLSW                                   I               52
RLSW                                       R   N=          52
  8.00000000E-01  7.20000000E-01  1.00000000E+00  8.10000000E-01  2.00000000E-01
  0.00000000E+00  0.00000000E+00  1.00000000E+00  0.00000000E+00  0.00000000E+00
  0.00000000E+00  0.00000000E+00  1.00000000E+00  0.00000000E+00  0.00000000E+00
  0.00000000E+00  0.00000000E+00  1.00000000E+00  0.00000000E+00  0.00000000E+00
  0.00000000E+00  0.00000000E+00  1.00000000E+00  0.00000000E+00  0.00000000E+00
  0.00000000E+00  0.00000000E+00  1.00000000E+00  0.00000000E+00  0.00000000E+00
  0.00000000E+00  0.00000000E+00  1.00000000E+00  0.00000000E+00  0.00000000E+00
  0.00000000E+00  0.00000000E+00  0.00000000E+00  1.00000000E+00  1.00000000E+00
  0.00000000E+00  1.00000000E+00  0.00000000E+00  0.00000000E+00  0.00000000E+00
  0.00000000E+00  0.00000000E+00  0.00000000E+00  0.00000000E+00  0.00000000E+00
  0.00000000E+00  0.00000000E+00
MxBond                                     I                4
NBond                                      I   N=           9
           4           1           1           1           4           1
           1           1           0
IBond                                      I   N=          36
           2           3           4           5           1           0
           0           0           1           0           0           0
           1           0           0           0           1           6
           7           8           5           0           0           0
           5           0           0           0           5           0
           0           0           0           0           0           0
RBond                                      R   N=          36
  1.00000000E+00  1.00000000E+00  1.00000000E+00  1.00000000E+00  1.00000000E+00
  0.00000000E+00  0.00000000E+00  0.00000000E+00  1.00000000E+00  0.00000000E+00
  0.00000000E+00  0.00000000E+00  1.00000000E+00  0.00000000E+00  0.00000000E+00
  0.00000000E+00  1.00000000E+00  2.00000000E+00  2.00000000E+00  1.00000000E+00
  2.00000000E+00  0.00000000E+00  0.00000000E+00  0.00000000E+00  2.00000000E+00
  0.00000000E+00  0.00000000E+00  0.00000000E+00  1.00000000E+00  0.00000000E+00
  0.00000000E+00  0.00000000E+00  0.00000000E+00  0.00000000E+00  0.00000000E+00
  0.00000000E+00
Virial Ratio                               R      2.006395517829220E+00
SCF Energy                                 R     -9.619495117557434E+02
Total Energy                               R     -9.619495117557434E+02
RMS Density                                R      8.907580293627989E-09
Job Status                                 I                1
Nuclear derivative order                   I                0
External E-field                           R   N=          35
  0.00000000E+00  0.00000000E+00  0.00000000E+00  0.00000000E+00  0.00000000E+00
  0.00000000E+00  0.00000000E+00  0.00000000E+00  0.00000000E+00  0.00000000E+00
  0.00000000E+00  0.00000000E+00  0.00000000E+00  0.00000000E+00  0.00000000E+00
  0.00000000E+00  0.00000000E+00  0.00000000E+00  0.00000000E+00  0.00000000E+00
  0.00000000E+00  0.00000000E+00  0.00000000E+00  0.00000000E+00  0.00000000E+00
  0.00000000E+00  0.00000000E+00  0.00000000E+00  0.00000000E+00  0.00000000E+00
  0.00000000E+00  0.00000000E+00  0.00000000E+00  0.00000000E+00  0.00000000E+00
IOpCl                                      I                0
IROHF                                      I                0
Alpha Orbital Energies                     R   N=         126
 -8.91730251E+01 -2.47799880E+01 -2.47641216E+01 -2.47631995E+01 -1.92415736E+01
 -1.92061715E+01 -1.91943765E+01 -1.05004732E+01 -8.19922774E+00 -6.16434737E+00
 -6.16275048E+00 -6.16252924E+00 -1.32777669E+00 -1.25116733E+00 -1.23528445E+00
 -1.19228768E+00 -1.07015231E+00 -1.03279276E+00 -7.93703688E-01 -6.83181149E-01
 -6.17286424E-01 -6.11285347E-01 -5.98753563E-01 -5.50307697E-01 -5.10646937E-01
 -4.94260403E-01 -4.89249314E-01 -4.85201034E-01 -4.64730443E-01 -4.56555892E-01
 -4.49468398E-01 -4.33103872E-01 -4.02449218E-01 -3.83133950E-01 -3.70898897E-01
 -3.58741238E-01 -3.42976075E-01 -5.60027406E-02 -2.48066012E-02  9.73773867E-03
  2.14602962E-02  9.23325221E-02  1.22102749E-01  1.44944098E-01  1.90475362E-01
  2.84468120E-01  3.12020986E-01  3.40098436E-01  3.95399325E-01  4.58928047E-01
  4.93368576E-01  5.16545179E-01  6.44783304E-01  6.70286458E-01  6.91358103E-01
  7.53807105E-01  7.71861912E-01  7.98833125E-01  8.60494263E-01  8.75702371E-01
  9.29148278E-01  9.67519160E-01  9.81563770E-01  9.99537910E-01  1.01296536E+00
  1.02862767E+00  1.08155968E+00  1.10007716E+00  1.10183828E+00  1.12473665E+00
  1.16824966E+00  1.18487087E+00  1.20088029E+00  1.27245884E+00  1.29017027E+00
  1.32318748E+00  1.34522087E+00  1.34866940E+00  1.36073462E+00  1.37884050E+00
  1.52063711E+00  1.55057310E+00  1.58243058E+00  1.59994561E+00  1.68329344E+00
  1.71467182E+00  1.73739631E+00  1.75086588E+00  1.76973971E+00  1.78124991E+00
  1.78994309E+00  1.79719550E+00  1.81617238E+00  1.82247960E+00  1.83220199E+00
  1.86518405E+00  1.90871391E+00  1.92641305E+00  1.94868617E+00  1.98428740E+00
  1.99948290E+00  2.01601002E+00  2.06202782E+00  2.09973855E+00  2.12941557E+00
  2.14363993E+00  2.18152979E+00  2.18653275E+00  2.28783954E+00  2.40641042E+00
  2.60292945E+00  2.62813539E+00  2.63798010E+00  2.73230756E+00  2.81156943E+00
  2.86782183E+00  3.00536703E+00  3.02098490E+00  3.55487298E+00  3.83782997E+00
  3.86364519E+00  3.93741456E+00  4.26456979E+00  4.30463129E+00  4.35038419E+00
  5.07142708E+00
Alpha MO coefficients                      R   N=       15876
 -2.52819903E-05 -6.72943084E-05  5.02439835E-05 -1.73986348E-06  3.69408344E-06
  8.25648034E-04  3.83140406E-04 -9.76654698E-05 -1.86089448E-05 -4.62105358E-05
 -4.73896634E-06 -4.05158844E-06  1.51395122E-05 -9.23628358E-07  9.39452066E-07
  1.86059987E-05  1.12734042E-04  1.14195119E-05 -4.56073785E-06 -3.76099782E-06
 -4.19034595E-04 -1.34161650E-04  2.00917955E-05 -6.24153614E-05  6.20718383E-05
  5.34958869E-05  7.07390270E-05 -3.14925442E-06 -2.94844684E-05  9.96625053E-06
  1.51643772E-05  9.19298747E-05  1.43695208E-05  3.96206590E-06  2.61292115E-06
 -3.31751254E-04 -1.33876832E-04  4.84519753E-05  1.02967470E-05  4.82988302E-05
  5.79894500E-05  4.54706854E-05  2.96833410E-05  1.26627964E-05  1.01358245E-05
  2.08425154E-05  1.24604222E-04  1.39237664E-05 -6.59131737E-06  1.67933056E-06
 -4.51636561E-04 -1.52267044E-04 -2.20090341E-05  3.82356003E-05  6.22687802E-05
  8.30091559E-05  6.80638652E-05 -2.11434668E-05  1.77771011E-05 -1.23499530E-05
  9.96122700E-01  1.48656972E-02 -1.33119384E-05  2.00410421E-05 -1.51589358E-05
 -2.41334948E-02  8.64586331E-05 -6.24716883E-05  3.09277999E-05  1.50786786E-03
 -2.20136588E-05 -4.45232442E-05  7.27100067E-05  8.49355277E-03  8.58423204E-03
  8.61523535E-03 -1.28039625E-05  7.48246048E-06  4.81612802E-05  1.46913870E-05
  1.33883313E-06  3.44938988E-05  2.65757281E-05  1.13538472E-04  4.08119364E-04
 -6.72227892E-05 -5.91322688E-05 -2.86439929E-04  7.97865919E-06  4.58097450E-05
 -1.64073082E-04 -2.31087427E-05 -1.15838327E-04 -5.48907407E-05  1.30377802E-05
 -4.16543074E-05  4.07503892E-05 -1.43063795E-04 -9.18375826E-05  4.81341362E-04
 -4.92491690E-05  2.69435000E-04  1.60992829E-04  2.68263023E-05 -1.09638909E-04
 -8.28246170E-06  8.28582694E-05  5.14187482E-05 -1.26992729E-04 -1.45991383E-05
 -2.09819134E-05 -2.43486716E-05 -1.98067063E-05 -5.60636203E-06  5.74319786E-04
 -8.06123434E-06 -2.04663320E-04  2.22714512E-04 -5.43062333E-05 -1.05244933E-04
 -6.95230514E-05 -1.99621852E-05  3.81564638E-05  7.35972217E-05 -6.43932793E-05
 -8.58703521E-05 -3.22738829E-05  3.70160868E-05 -3.02698934E-04  5.64759127E-04
  2.11647030E-04  3.90999784E-04  5.06666845E-04 -1.22437478E-04  3.89694852E-05
  6.40681974E-05  4.13533898E-04  8.17426562E-05 -1.82214750E-04 -7.91833848E-05
  1.74480464E-04  5.58815655E-05  5.31873437E-05  1.71882433E-06  1.38036453E-05
  1.59789323E-05 -1.30520588E-05 -2.16739975E-05 -9.92181047E-05 -1.01334465E-04
  3.52853399E-05 -4.52135198E-05 -6.04942391E-05  9.33989570E-06 -2.21365020E-05
 -9.15955547E-05  9.93012616E-01  1.97307807E-02  2.64832481E-04 -6.73545440E-04
 -2.63543536E-04  1.47138989E-02 -1.55620889E-04  4.86653244E-04  1.83760164E-04
 -7.96825164E-03 -8.32868515E-03 -8.01095606E-03  1.70779495E-04  6.95882884E-05
 -1.66804954E-04  5.40783687E-05  8.83778868E-05  6.09657502E-06  2.18948037E-05
 -3.78083779E-07 -1.41442731E-04 -4.99099327E-05 -1.60045556E-04 -1.84796105E-06
  4.99123454E-05 -1.09373629E-04  5.79531207E-05 -2.42661120E-05  2.24521527E-05
  4.87608730E-06  3.27017229E-06  5.52645271E-05  6.08165331E-06  4.61352238E-07
  1.16333415E-06  2.32515559E-04 -8.91116816E-05  1.91826494E-05 -3.19371156E-05
 -1.49526782E-03  4.67230929E-04 -7.85132847E-04 -2.48049504E-04  3.01931923E-05
  4.33629884E-05  1.79487193E-05 -9.88902769E-06 -1.69216888E-06 -1.81078439E-06
 -4.30581396E-05 -1.92013218E-04  2.45057439E-05 -1.95922879E-05  1.65433331E-05
  9.86681702E-04 -2.08077750E-04  1.15767113E-04 -2.08585600E-04 -1.11952765E-04
 -1.33692827E-04 -1.17016380E-04 -9.44846708E-06  2.47457056E-05 -2.39836420E-05
  1.35374710E-05  4.77713816E-05  9.76617152E-06 -8.86722726E-06  7.48323238E-06
 -2.63940160E-04 -4.32573227E-05  5.18483297E-05 -3.59854980E-05  3.94764213E-05
  5.05222594E-05  3.83232499E-05 -1.73415808E-06  2.86446565E-06 -4.37299386E-06
 -2.84280198E-05 -1.43260670E-04  9.35276602E-06  1.56611722E-05 -1.31374155E-05
  7.26054068E-04 -1.47442942E-04 -1.41876915E-04  1.77832803E-04 -7.29724258E-05
 -9.07260238E-05 -5.31163796E-05  1.15264548E-05 -1.75653444E-05 -6.62496235E-06
 -2.61388274E-05  1.15918133E-04 -3.11462178E-05 -8.58053132E-05 -2.96391368E-04
 -3.34039992E-05 -5.21231619E-04  2.77790814E-04  4.59000282E-04 -1.10397507E-04
 -7.18000558E-07  1.19849529E-04  5.31809755E-05  5.31421691E-04  3.37107150E-05
  2.54424501E-04  5.59175245E-05  9.93020146E-01  1.97261581E-02  2.81542026E-04
  7.34329114E-05  6.65693860E-04  1.46784147E-02 -1.53874458E-04 -4.46650562E-05
 -4.68476663E-04 -7.97157178E-03 -7.94737063E-03 -8.33230363E-03 -2.34588969E-05
 -1.96101148E-04 -4.25401037E-05 -6.01861352E-05  3.74497040E-05  6.68917473E-08
 -1.20594009E-05 -2.05627979E-05  5.12682896E-05 -5.42568496E-06  5.80431507E-05
  1.31827508E-04  2.88535037E-05 -2.49733804E-05 -9.42911688E-05  1.89693083E-05
 -1.81346398E-05 -8.24068516E-05  7.76205635E-04  8.88337450E-05  3.87617398E-06
  4.76561452E-06 -2.37735954E-05 -7.69156283E-05 -2.69939414E-05 -2.08877355E-05
  1.61302780E-04  3.71030188E-05  3.69738705E-05 -1.10799715E-04 -2.25435655E-05
  5.94777019E-06  5.36621962E-05  2.72220265E-06  4.93199308E-05  6.97138754E-06
 -6.45016843E-07 -3.59868834E-06  1.95309292E-04 -9.39545966E-05  3.45753106E-05
  1.81741118E-05 -1.35166545E-03  5.24387034E-04 -2.64912579E-05  7.69060897E-04
  3.34039863E-05  3.32446752E-05  3.72409531E-05 -8.92840389E-06  5.94801526E-06
 -7.11980780E-06  1.66924533E-05  6.19248583E-05  1.08884357E-05 -9.36595307E-06
 -1.07134317E-06 -3.35370965E-04 -4.21613456E-05  4.84753741E-05  6.86023678E-07
  5.14983620E-05  5.03788875E-05  5.37903989E-05 -3.02905430E-06  1.84370678E-06
 -6.46903752E-06 -3.87274123E-05 -1.78057291E-04  1.56373099E-05 -1.89468504E-05
  1.41194873E-05  9.34031308E-04 -1.77703485E-04  2.19722873E-04 -5.18530110E-05
 -1.00527142E-04 -9.10426047E-05 -1.28229937E-04 -2.09573165E-05 -2.44857804E-06
 -1.77257065E-05 -3.44723705E-05 -1.57672959E-04  9.47245391E-06  2.18719105E-05
  2.07975705E-06  7.90547111E-04 -1.37864313E-04 -2.15717835E-04  2.04109282E-05
 -9.34116502E-05 -7.90031046E-05 -1.13087883E-04  2.45870825E-05 -5.62657021E-06
  9.76769654E-06 -8.19466539E-06  8.61356699E-06 -2.44608226E-05 -8.30428058E-05
 -3.46978136E-04 -3.69828282E-04  2.95262099E-04  8.57960498E-05  4.04277783E-04
  5.71950822E-05 -7.51124356E-05  1.95650855E-04  3.35806245E-04  2.17798144E-04
  2.49686273E-04 -1.91079989E-04 -2.33020587E-04 -7.72485113E-04  4.23658639E-05
 -4.30149871E-06 -1.01877600E-05  1.93580125E-05 -4.78436297E-05  1.58654884E-05
  7.53060867E-05 -1.22031537E-04  4.11551203E-05  9.19252686E-06 -8.17251068E-05
 -2.66706300E-05  5.68398474E-06  7.56710016E-05 -4.72861870E-05  6.43316645E-05
 -2.54174116E-06 -2.25233147E-05  2.75537954E-06 -5.04327991E-05  7.69167559E-06
  1.42889497E-04 -3.14489872E-05  3.90531650E-05 -1.12179313E-04  3.25199493E-05
 -1.42214552E-05  2.94798908E-05  3.19591585E-05  9.93019371E-01  1.97071402E-02
  3.71678614E-04  4.89485992E-04 -3.65415929E-04  1.47687219E-02 -2.08705387E-04
 -3.16791071E-04  2.35819136E-04 -8.03005577E-03 -8.15786248E-03 -8.06785642E-03
 -1.86825914E-04  1.39814420E-04  1.88792323E-04  1.30068244E-06  2.86100758E-05
  8.68824523E-06 -1.33675048E-06 -1.94307116E-07  9.66060923E-05 -1.16539695E-04
  2.13828555E-05  4.13711894E-06 -1.07013283E-03  4.95957015E-04  2.07055030E-04
 -1.56297503E-04  1.99495590E-05  3.57013278E-05  2.25916270E-05 -2.25563743E-06
 -3.82126508E-06 -2.68273884E-05 -2.73015508E-05 -1.16884751E-04  2.95046553E-05
  1.48880707E-05  5.54116320E-06  5.62553078E-04 -1.79879410E-04 -9.19042099E-05
 -9.32200164E-05 -7.31938729E-05 -7.98990093E-05 -8.43999164E-05  1.30361714E-05
  2.09125294E-05  8.67961731E-06 -2.95812570E-05 -1.27689739E-04  2.96269484E-05
 -2.46032166E-07 -1.80468553E-05  6.24979028E-04 -1.80872403E-04  6.95424910E-05
  1.36879409E-04 -8.31299559E-05 -9.25526898E-05 -7.97365846E-05 -1.66195837E-05
 -1.91632561E-05  7.81516552E-06  1.68994116E-07 -4.19487149E-07  1.21369362E-05
 -4.21403612E-06  1.27895309E-06  1.61015110E-05 -6.54774929E-05 -2.57920482E-06
  8.98772416E-06  2.49342646E-06 -5.54863742E-07  2.79877988E-06  7.56858864E-06
 -5.03454491E-06  3.62392842E-06  4.71688339E-06 -1.49969060E-05 -2.40829498E-05
 -1.56239938E-04  3.06758012E-05  4.18505134E-06  1.78282632E-05  1.05841562E-03
  4.72577868E-04 -6.48903039E-04 -2.13432442E-05  5.03850700E-05 -2.81926406E-05
 -1.15459124E-05  3.39802194E-05 -1.47476557E-05 -3.03470155E-05 -3.53836601E-05
 -1.85227164E-04 -3.53178866E-05 -1.15208491E-05  2.18581200E-08  5.22517737E-04
  1.18481696E-04  1.03271641E-04 -2.36974415E-05 -9.90535848E-05 -1.68744692E-04
 -1.63331777E-04  9.29043207E-06 -6.32550202E-06  3.10297077E-05 -4.77390239E-05
 -2.74181457E-04 -1.52594392E-05  1.12340024E-05  6.02379488E-06  9.47910353E-04
  9.65831400E-05 -9.14919172E-05 -8.32251520E-05 -1.56151269E-04 -1.86611847E-04
 -1.92959825E-04 -5.31266763E-06 -1.23527999E-05  1.56800585E-05  4.63032577E-05
  2.60857111E-04  3.32905391E-05  5.77813305E-06 -1.89148930E-05 -9.29898085E-04