PFMS Time step 5                                                        
SP        RB3LYP                                                      6-31G(d)            
Number of atoms                            I                9
Info1-9                                    I   N=           9
          18          18           0           0           0         110
           1          18        -502
Full Title                                 C   N=           2
PFMS Time step 5        
Route                                      C   N=           4
# B3LYP/6-31G(d) pop=full density=current       
Charge                                     I                0
Multiplicity                               I                1
Number of electrons                        I               74
Number of alpha electrons                  I               37
Number of beta electrons                   I               37
Number of basis functions                  I              126
Number of independent functions            I              126
Number of point charges in /Mol/           I                0
Number of translation vectors              I                0
Atomic numbers                             I   N=           9
           6           9           9           9          16           8
           8           8           1
Nuclear charges                            R   N=           9
  6.00000000E+00  9.00000000E+00  9.00000000E+00  9.00000000E+00  1.60000000E+01
  8.00000000E+00  8.00000000E+00  8.00000000E+00  1.00000000E+00
Current cartesian coordinates              R   N=          27
 -1.88655904E+00  2.56631199E-02  1.62518124E-02 -2.82999892E+00 -4.31370273E-01
 -2.35862727E+00 -2.68051672E+00  2.38523854E+00  6.84450292E-01 -3.09883261E+00
 -1.63842062E+00  1.60380444E+00  1.59731177E+00 -3.09950155E-01  1.57973673E-01
  2.58410063E+00  4.93987217E-01  2.59553827E+00  2.43718958E+00 -2.62017302E+00
 -9.80553517E-01  2.44155393E+00  1.96166155E+00 -1.77125561E+00  3.54374704E+00
  3.28238903E+00 -7.41569988E-01
Number of symbols in /Mol/                 I                0
Int Atom Types                             I   N=           9
           0           0           0           0           0           0
           0           0           0
Force Field                                I                0
Atom Types                                 C   N=           9
                                                            
                                                
MM charges                                 R   N=           9
  0.00000000E+00  0.00000000E+00  0.00000000E+00  0.00000000E+00  0.00000000E+00
  0.00000000E+00  0.00000000E+00  0.00000000E+00  0.00000000E+00
Integer atomic weights                     I   N=           9
          12          19          19          19          32          16
          16          16           1
Real atomic weights                        R   N=           9
  1.20000000E+01  1.89984032E+01  1.89984032E+01  1.89984032E+01  3.19720718E+01
  1.59949146E+01  1.59949146E+01  1.59949146E+01  1.00782504E+00
Atom fragment info                         I   N=           9
           0           0           0           0           0           0
           0           0           0
Atom residue num                           I   N=           9
           0           0           0           0           0           0
           0           0           0
Nuclear spins                              I   N=           9
           0           1           1           1           0           0
           0           0           1
Nuclear ZEff                               R   N=           9
 -3.60000000E+00 -6.75000000E+00 -6.75000000E+00 -6.75000000E+00 -1.36000000E+01
 -5.60000000E+00 -5.60000000E+00 -5.60000000E+00 -1.00000000E+00
Nuclear ZNuc                               R   N=           9
  6.00000000E+00  9.00000000E+00  9.00000000E+00  9.00000000E+00  1.60000000E+01
  8.00000000E+00  8.00000000E+00  8.00000000E+00  1.00000000E+00
Nuclear QMom                               R   N=           9
  0.00000000E+00  0.00000000E+00  0.00000000E+00  0.00000000E+00  0.00000000E+00
  0.00000000E+00  0.00000000E+00  0.00000000E+00  0.00000000E+00
Nuclear GFac                               R   N=           9
  0.00000000E+00  2.62886700E+00  2.62886700E+00  2.62886700E+00  0.00000000E+00
  0.00000000E+00  0.00000000E+00  0.00000000E+00  2.79284600E+00
MicOpt                                     I   N=           9
          -1          -1          -1          -1          -1          -1
          -1          -1          -1
Number of residues                         I                0
Number of secondary structures             I                0
SymInf integers                            I   N=          26
           1           1           1           1           1           0
           0           0           0           0           0           0
           0           0           0           0           0           0
           0           0           0           0           0           0
           0           0
RotTr to input orientation                 R   N=          12
  9.62314093E-01  2.38857870E-02  2.70889377E-01 -1.12257531E-01  9.42192433E-01
  3.15708197E-01 -2.47688983E-01 -3.34219820E-01  9.09366417E-01  7.71498566E-02
  2.18410460E-02  2.41872176E-02
Number of contracted shells                I               35
Number of primitive shells                 I               98
Pure/Cartesian d shells                    I                1
Pure/Cartesian f shells                    I                0
Highest angular momentum                   I                2
Largest degree of contraction              I                6
Shell types                                I   N=          35
           0          -1          -1           2           0          -1
          -1           2           0          -1          -1           2
           0          -1          -1           2           0          -1
          -1          -1           2           0          -1          -1
           2           0          -1          -1           2           0
          -1          -1           2           0           0
Number of primitives per shell             I   N=          35
           6           3           1           1           6           3
           1           1           6           3           1           1
           6           3           1           1           6           6
           3           1           1           6           3           1
           1           6           3           1           1           6
           3           1           1           3           1
Shell to atom map                          I   N=          35
           1           1           1           1           2           2
           2           2           3           3           3           3
           4           4           4           4           5           5
           5           5           5           6           6           6
           6           7           7           7           7           8
           8           8           8           9           9
Primitive exponents                        R   N=          98
  3.04752488E+03  4.57369518E+02  1.03948685E+02  2.92101553E+01  9.28666296E+00
  3.16392696E+00  7.86827235E+00  1.88128854E+00  5.44249258E-01  1.68714478E-01
  8.00000000E-01  7.00171309E+03  1.05136609E+03  2.39285690E+02  6.73974453E+01
  2.15199573E+01  7.40310130E+00  2.08479528E+01  4.80830834E+00  1.34406986E+00
  3.58151393E-01  8.00000000E-01  7.00171309E+03  1.05136609E+03  2.39285690E+02
  6.73974453E+01  2.15199573E+01  7.40310130E+00  2.08479528E+01  4.80830834E+00
  1.34406986E+00  3.58151393E-01  8.00000000E-01  7.00171309E+03  1.05136609E+03
  2.39285690E+02  6.73974453E+01  2.15199573E+01  7.40310130E+00  2.08479528E+01
  4.80830834E+00  1.34406986E+00  3.58151393E-01  8.00000000E-01  2.19171000E+04
  3.30149000E+03  7.54146000E+02  2.12711000E+02  6.79896000E+01  2.30515000E+01
  4.23735000E+02  1.00710000E+02  3.21599000E+01  1.18079000E+01  4.63110000E+00
  1.87025000E+00  2.61584000E+00  9.22167000E-01  3.41287000E-01  1.17167000E-01
  6.50000000E-01  5.48467166E+03  8.25234946E+02  1.88046958E+02  5.29645000E+01
  1.68975704E+01  5.79963534E+00  1.55396162E+01  3.59993359E+00  1.01376175E+00
  2.70005823E-01  8.00000000E-01  5.48467166E+03  8.25234946E+02  1.88046958E+02
  5.29645000E+01  1.68975704E+01  5.79963534E+00  1.55396162E+01  3.59993359E+00
  1.01376175E+00  2.70005823E-01  8.00000000E-01  5.48467166E+03  8.25234946E+02
  1.88046958E+02  5.29645000E+01  1.68975704E+01  5.79963534E+00  1.55396162E+01
  3.59993359E+00  1.01376175E+00  2.70005823E-01  8.00000000E-01  1.87311370E+01
  2.82539436E+00  6.40121692E-01  1.61277759E-01
Contraction coefficients                   R   N=          98
  1.83473713E-03  1.40373228E-02  6.88426223E-02  2.32184443E-01  4.67941348E-01
  3.62311985E-01 -1.19332420E-01 -1.60854152E-01  1.14345644E+00  1.00000000E+00
  1.00000000E+00  1.81961690E-03  1.39160796E-02  6.84053245E-02  2.33185760E-01
  4.71267439E-01  3.56618546E-01 -1.08506975E-01 -1.46451658E-01  1.12868858E+00
  1.00000000E+00  1.00000000E+00  1.81961690E-03  1.39160796E-02  6.84053245E-02
  2.33185760E-01  4.71267439E-01  3.56618546E-01 -1.08506975E-01 -1.46451658E-01
  1.12868858E+00  1.00000000E+00  1.00000000E+00  1.81961690E-03  1.39160796E-02
  6.84053245E-02  2.33185760E-01  4.71267439E-01  3.56618546E-01 -1.08506975E-01
 -1.46451658E-01  1.12868858E+00  1.00000000E+00  1.00000000E+00  1.86924085E-03
  1.42303065E-02  6.96962317E-02  2.38487108E-01  4.83307220E-01  3.38074154E-01
 -2.37677050E-03 -3.16930067E-02 -1.13317024E-01  5.60900118E-02  5.92255124E-01
  4.55006095E-01 -2.50373114E-01  6.69567631E-02  1.05450627E+00  1.00000000E+00
  1.00000000E+00  1.83107443E-03  1.39501722E-02  6.84450781E-02  2.32714336E-01
  4.70192898E-01  3.58520853E-01 -1.10777550E-01 -1.48026263E-01  1.13076702E+00
  1.00000000E+00  1.00000000E+00  1.83107443E-03  1.39501722E-02  6.84450781E-02
  2.32714336E-01  4.70192898E-01  3.58520853E-01 -1.10777550E-01 -1.48026263E-01
  1.13076702E+00  1.00000000E+00  1.00000000E+00  1.83107443E-03  1.39501722E-02
  6.84450781E-02  2.32714336E-01  4.70192898E-01  3.58520853E-01 -1.10777550E-01
 -1.48026263E-01  1.13076702E+00  1.00000000E+00  1.00000000E+00  3.34946043E-02
  2.34726953E-01  8.13757326E-01  1.00000000E+00
P(S=P) Contraction coefficients            R   N=          98
  0.00000000E+00  0.00000000E+00  0.00000000E+00  0.00000000E+00  0.00000000E+00
  0.00000000E+00  6.89990666E-02  3.16423961E-01  7.44308291E-01  1.00000000E+00
  0.00000000E+00  0.00000000E+00  0.00000000E+00  0.00000000E+00  0.00000000E+00
  0.00000000E+00  0.00000000E+00  7.16287242E-02  3.45912103E-01  7.22469956E-01
  1.00000000E+00  0.00000000E+00  0.00000000E+00  0.00000000E+00  0.00000000E+00
  0.00000000E+00  0.00000000E+00  0.00000000E+00  7.16287242E-02  3.45912103E-01
  7.22469956E-01  1.00000000E+00  0.00000000E+00  0.00000000E+00  0.00000000E+00
  0.00000000E+00  0.00000000E+00  0.00000000E+00  0.00000000E+00  7.16287242E-02
  3.45912103E-01  7.22469956E-01  1.00000000E+00  0.00000000E+00  0.00000000E+00
  0.00000000E+00  0.00000000E+00  0.00000000E+00  0.00000000E+00  0.00000000E+00
  4.06100998E-03  3.06812999E-02  1.30451999E-01  3.27204999E-01  4.52850998E-01
  2.56041999E-01 -1.45104895E-02  3.10262776E-01  7.54482456E-01  1.00000000E+00
  0.00000000E+00  0.00000000E+00  0.00000000E+00  0.00000000E+00  0.00000000E+00
  0.00000000E+00  0.00000000E+00  7.08742682E-02  3.39752839E-01  7.27158577E-01
  1.00000000E+00  0.00000000E+00  0.00000000E+00  0.00000000E+00  0.00000000E+00
  0.00000000E+00  0.00000000E+00  0.00000000E+00  7.08742682E-02  3.39752839E-01
  7.27158577E-01  1.00000000E+00  0.00000000E+00  0.00000000E+00  0.00000000E+00
  0.00000000E+00  0.00000000E+00  0.00000000E+00  0.00000000E+00  7.08742682E-02
  3.39752839E-01  7.27158577E-01  1.00000000E+00  0.00000000E+00  0.00000000E+00
  0.00000000E+00  0.00000000E+00  0.00000000E+00
Coordinates of each shell                  R   N=         105
 -1.88655904E+00  2.56631199E-02  1.62518124E-02 -1.88655904E+00  2.56631199E-02
  1.62518124E-02 -1.88655904E+00  2.56631199E-02  1.62518124E-02 -1.88655904E+00
  2.56631199E-02  1.62518124E-02 -2.82999892E+00 -4.31370273E-01 -2.35862727E+00
 -2.82999892E+00 -4.31370273E-01 -2.35862727E+00 -2.82999892E+00 -4.31370273E-01
 -2.35862727E+00 -2.82999892E+00 -4.31370273E-01 -2.35862727E+00 -2.68051672E+00
  2.38523854E+00  6.84450292E-01 -2.68051672E+00  2.38523854E+00  6.84450292E-01
 -2.68051672E+00  2.38523854E+00  6.84450292E-01 -2.68051672E+00  2.38523854E+00
  6.84450292E-01 -3.09883261E+00 -1.63842062E+00  1.60380444E+00 -3.09883261E+00
 -1.63842062E+00  1.60380444E+00 -3.09883261E+00 -1.63842062E+00  1.60380444E+00
 -3.09883261E+00 -1.63842062E+00  1.60380444E+00  1.59731177E+00 -3.09950155E-01
  1.57973673E-01  1.59731177E+00 -3.09950155E-01  1.57973673E-01  1.59731177E+00
 -3.09950155E-01  1.57973673E-01  1.59731177E+00 -3.09950155E-01  1.57973673E-01
  1.59731177E+00 -3.09950155E-01  1.57973673E-01  2.58410063E+00  4.93987217E-01
  2.59553827E+00  2.58410063E+00  4.93987217E-01  2.59553827E+00  2.58410063E+00
  4.93987217E-01  2.59553827E+00  2.58410063E+00  4.93987217E-01  2.59553827E+00
  2.43718958E+00 -2.62017302E+00 -9.80553517E-01  2.43718958E+00 -2.62017302E+00
 -9.80553517E-01  2.43718958E+00 -2.62017302E+00 -9.80553517E-01  2.43718958E+00
 -2.62017302E+00 -9.80553517E-01  2.44155393E+00  1.96166155E+00 -1.77125561E+00
  2.44155393E+00  1.96166155E+00 -1.77125561E+00  2.44155393E+00  1.96166155E+00
 -1.77125561E+00  2.44155393E+00  1.96166155E+00 -1.77125561E+00  3.54374704E+00
  3.28238903E+00 -7.41569988E-01  3.54374704E+00  3.28238903E+00 -7.41569988E-01
Num ILSW                                   I              100
ILSW                                       I   N=         100
           0           1           0           0           2           0
           0           0           0           0         402          -1
           5           0           0           0           0           0
           0           0           1           0           0           0
           1           0           0           0           0           0
           0           0      100000           0          -1           0
           0           0           0           0           0           0
           0           0           0           1           0           0
           0 -2000000000           1           0           0           0
           0           0           4          52           0           0
           0           0           5           0           0           0
           0           0           0           0           0           1
           0           0           0           0           0           0
           0           0           0           0           0           0
           0           0           0           0           0           0
           0           0           0           0           0           0
           0           0           0           0
Num RLSW                                   I               52
RLSW                                       R   N=          52
  8.00000000E-01  7.20000000E-01  1.00000000E+00  8.10000000E-01  2.00000000E-01
  0.00000000E+00  0.00000000E+00  1.00000000E+00  0.00000000E+00  0.00000000E+00
  0.00000000E+00  0.00000000E+00  1.00000000E+00  0.00000000E+00  0.00000000E+00
  0.00000000E+00  0.00000000E+00  1.00000000E+00  0.00000000E+00  0.00000000E+00
  0.00000000E+00  0.00000000E+00  1.00000000E+00  0.00000000E+00  0.00000000E+00
  0.00000000E+00  0.00000000E+00  1.00000000E+00  0.00000000E+00  0.00000000E+00
  0.00000000E+00  0.00000000E+00  1.00000000E+00  0.00000000E+00  0.00000000E+00
  0.00000000E+00  0.00000000E+00  0.00000000E+00  1.00000000E+00  1.00000000E+00
  0.00000000E+00  1.00000000E+00  0.00000000E+00  0.00000000E+00  0.00000000E+00
  0.00000000E+00  0.00000000E+00  0.00000000E+00  0.00000000E+00  0.00000000E+00
  0.00000000E+00  0.00000000E+00
MxBond                                     I                4
NBond                                      I   N=           9
           4           1           1           1           4           1
           1           2           1
IBond                                      I   N=          36
           2           3           4           5           1           0
           0           0           1           0           0           0
           1           0           0           0           1           6
           7           8           5           0           0           0
           5           0           0           0           5           9
           0           0           8           0           0           0
RBond                                      R   N=          36
  1.00000000E+00  1.00000000E+00  1.00000000E+00  1.00000000E+00  1.00000000E+00
  0.00000000E+00  0.00000000E+00  0.00000000E+00  1.00000000E+00  0.00000000E+00
  0.00000000E+00  0.00000000E+00  1.00000000E+00  0.00000000E+00  0.00000000E+00
  0.00000000E+00  1.00000000E+00  2.00000000E+00  2.00000000E+00  1.00000000E+00
  2.00000000E+00  0.00000000E+00  0.00000000E+00  0.00000000E+00  2.00000000E+00
  0.00000000E+00  0.00000000E+00  0.00000000E+00  1.00000000E+00  1.00000000E+00
  0.00000000E+00  0.00000000E+00  1.00000000E+00  0.00000000E+00  0.00000000E+00
  0.00000000E+00
Virial Ratio                               R      2.006280679894290E+00
SCF Energy                                 R     -9.619812444477817E+02
Total Energy                               R     -9.619812444477817E+02
RMS Density                                R      7.446692126245362E-09
Job Status                                 I                1
Nuclear derivative order                   I                0
External E-field                           R   N=          35
  0.00000000E+00  0.00000000E+00  0.00000000E+00  0.00000000E+00  0.00000000E+00
  0.00000000E+00  0.00000000E+00  0.00000000E+00  0.00000000E+00  0.00000000E+00
  0.00000000E+00  0.00000000E+00  0.00000000E+00  0.00000000E+00  0.00000000E+00
  0.00000000E+00  0.00000000E+00  0.00000000E+00  0.00000000E+00  0.00000000E+00
  0.00000000E+00  0.00000000E+00  0.00000000E+00  0.00000000E+00  0.00000000E+00
  0.00000000E+00  0.00000000E+00  0.00000000E+00  0.00000000E+00  0.00000000E+00
  0.00000000E+00  0.00000000E+00  0.00000000E+00  0.00000000E+00  0.00000000E+00
IOpCl                                      I                0
IROHF                                      I                0
Alpha Orbital Energies                     R   N=         126
 -8.91739957E+01 -2.47750416E+01 -2.47711852E+01 -2.47698140E+01 -1.92426059E+01
 -1.91996868E+01 -1.91944130E+01 -1.05001591E+01 -8.19930429E+00 -6.16477945E+00
 -6.16269773E+00 -6.16255750E+00 -1.33628398E+00 -1.25416497E+00 -1.24929231E+00
 -1.18671370E+00 -1.06690914E+00 -1.05347412E+00 -7.94581370E-01 -6.92132089E-01
 -6.27051586E-01 -6.18441080E-01 -6.11264993E-01 -5.55709272E-01 -5.13396853E-01
 -4.95105383E-01 -4.93291650E-01 -4.91796922E-01 -4.69665932E-01 -4.59290916E-01
 -4.56649975E-01 -4.38053926E-01 -4.03358133E-01 -3.80873183E-01 -3.66807412E-01
 -3.61656337E-01 -3.42231066E-01 -2.72634140E-02 -1.56631778E-02  1.98352070E-02
  4.01341052E-02  9.25235623E-02  1.34387864E-01  1.54466054E-01  1.87352672E-01
  2.85278332E-01  3.13775368E-01  3.42154294E-01  3.89296426E-01  4.58568621E-01
  4.87874775E-01  5.12719881E-01  6.46716643E-01  6.79488580E-01  7.10265219E-01
  7.54717853E-01  7.88415227E-01  8.01285464E-01  8.68572300E-01  8.79084558E-01
  9.29029690E-01  9.70063597E-01  9.87572868E-01  9.99037218E-01  1.01118434E+00
  1.01883105E+00  1.07859712E+00  1.10117611E+00  1.10717324E+00  1.11723510E+00
  1.16366257E+00  1.17123344E+00  1.18289837E+00  1.27329174E+00  1.28991016E+00
  1.32079879E+00  1.34239841E+00  1.34342559E+00  1.36228193E+00  1.37579247E+00
  1.51542106E+00  1.54881217E+00  1.58691343E+00  1.60199545E+00  1.67039964E+00
  1.71401324E+00  1.73922249E+00  1.75186959E+00  1.76678853E+00  1.77471309E+00
  1.78942042E+00  1.79850944E+00  1.81484091E+00  1.82096744E+00  1.82852916E+00
  1.86965548E+00  1.91428252E+00  1.93086824E+00  1.95138092E+00  2.00705597E+00
  2.01203135E+00  2.02911778E+00  2.08289220E+00  2.11952453E+00  2.15792850E+00
  2.17633918E+00  2.19113554E+00  2.23651530E+00  2.29502572E+00  2.45105848E+00
  2.62101194E+00  2.64908905E+00  2.65008753E+00  2.73527109E+00  2.79662157E+00
  2.89887417E+00  3.00635583E+00  3.01126574E+00  3.57227697E+00  3.82393212E+00
  3.86667052E+00  3.93353421E+00  4.29058060E+00  4.30154603E+00  4.40283519E+00
  5.06625492E+00
Alpha MO coefficients                      R   N=       15876
 -2.57324588E-05 -7.05812633E-05  5.03559919E-05 -3.11040487E-06  2.82211564E-06
  8.38242409E-04  3.88761569E-04 -5.13400366E-05  1.50537171E-06 -4.35368385E-05
 -5.53135751E-06 -3.64415273E-06  8.74960189E-06 -2.46194159E-06 -5.24190873E-07
  1.80085921E-05  1.09005002E-04  1.10707640E-05 -3.69679471E-06 -4.32520804E-06
 -4.08558973E-04 -1.35142856E-04  6.10968471E-06 -5.87238031E-05  5.99797697E-05
  5.07939738E-05  6.86416780E-05 -6.36293455E-06 -2.82356627E-05  9.18746903E-06
  1.70728034E-05  1.01902887E-04  1.19895865E-05  4.57345941E-06  1.91192804E-06
 -3.81181967E-04 -1.31465002E-04  5.64227352E-05  9.35883525E-06  5.97053789E-05
  6.40757908E-05  4.73984887E-05  2.73521704E-05  9.25356580E-06  8.00152355E-06
  1.95456688E-05  1.16769165E-04  1.24489596E-05 -6.00671531E-06  3.80715500E-06
 -4.30060673E-04 -1.48501501E-04 -2.16781113E-05  3.30322582E-05  5.95239795E-05
  7.21235758E-05  6.64043919E-05 -1.91185167E-05  1.83544225E-05 -1.52893914E-05
  9.96122943E-01  1.48656573E-02 -1.20718435E-05  2.19103956E-05 -1.69126190E-05
 -2.41415281E-02  8.78708382E-05 -5.83184228E-05  3.38706445E-05  1.51562299E-03
 -1.66040488E-05 -4.57813434E-05  5.95217301E-05  8.49817824E-03  8.59521734E-03
  8.61756548E-03 -9.59331385E-06  8.24424601E-06  4.01310204E-05  1.47421460E-05
 -2.67061273E-06  3.45744270E-05  3.92422770E-05  1.15509075E-04  4.19136790E-04
 -6.38474066E-05 -8.56950061E-05 -2.79913887E-04  1.22192653E-05  3.47481478E-05
 -1.55808221E-04 -3.42924451E-05 -1.09867349E-04 -7.94620925E-05  1.36816416E-05
 -1.91848995E-05  3.48373576E-05 -1.28004425E-04 -6.25643131E-05  4.54468850E-04
 -5.49576699E-05  2.79706644E-04  1.27189650E-04  1.97357083E-05 -1.41193119E-04
  9.48476254E-06  9.23533856E-05  4.39564047E-05 -1.11864431E-04 -1.29843782E-05
 -2.66705665E-05 -2.16355576E-05 -1.02148649E-05 -1.29066540E-05  6.29765605E-04
  1.56242240E-05 -1.62772403E-04  2.55319245E-04 -5.01473440E-05 -1.03220017E-04
 -8.95658478E-05 -1.57297968E-05  5.19463201E-05  1.01712645E-04 -8.52781738E-05
 -1.11297477E-04 -3.26549771E-05  2.12568740E-05 -2.98237328E-04  5.73722057E-04
  1.54633857E-04  3.99924907E-04  5.27185550E-04 -5.42402116E-05  7.08569885E-05
  6.28461322E-05  4.54659554E-04  6.25870463E-05 -1.91779436E-04 -6.14383904E-05
  1.33569112E-04  1.43845696E-04  4.00160545E-05  2.48951264E-06  1.44740064E-05
  1.07447633E-05  4.31970725E-05 -2.49337520E-05 -1.20105574E-04 -8.35464848E-05
  2.05158080E-05 -7.70727043E-05 -5.77767082E-05  6.82033211E-06 -2.46121987E-05
 -9.49288941E-05  9.93010930E-01  1.97306580E-02  2.49034324E-04 -6.91604352E-04
 -1.93255209E-04  1.47115579E-02 -1.40472885E-04  5.06936627E-04  1.35360545E-04
 -7.96807289E-03 -8.36290277E-03 -7.99335659E-03  1.72355547E-04  5.12663047E-05
 -1.27196726E-04  2.02297580E-04  8.02870160E-05  6.35487047E-06  2.01930110E-05
 -9.13594475E-07 -9.72777500E-05 -5.18726442E-05 -1.66288993E-04  5.65580448E-06
  3.87150569E-05 -1.22356065E-04  4.53966346E-05 -2.18508169E-05  2.68053667E-05
  2.47340970E-05  3.52936131E-06  5.56732921E-05  5.36346626E-06  1.71263610E-06
  1.26014775E-06  2.47671119E-04 -8.81186210E-05  7.36922031E-06 -3.37875057E-05
 -1.55171135E-03  4.89447240E-04 -8.57150953E-04 -1.97142067E-04  2.54901557E-05
  3.71956464E-05  1.70269175E-05 -5.28497959E-06  9.01975618E-07 -2.30332060E-06
 -4.45251106E-05 -1.99821479E-04  2.29634307E-05 -1.82103136E-05  1.83593206E-05
  1.03676280E-03 -2.10321147E-04  9.88826915E-05 -2.26393676E-04 -1.15241982E-04
 -1.40593680E-04 -1.17265718E-04 -6.95535403E-06  2.57051589E-05 -2.30489403E-05
  1.52422811E-05  5.52304592E-05  9.42049232E-06 -6.67832145E-06  8.57075369E-06
 -3.07863744E-04 -3.93859345E-05  3.84568576E-05 -4.09399607E-05  4.40573967E-05
  5.49155492E-05  4.43543838E-05 -1.41178976E-06  2.86613556E-06 -4.32784797E-06
 -2.69649944E-05 -1.41140036E-04  8.16931992E-06  1.54555364E-05 -1.30485468E-05
  7.26000260E-04 -1.51319677E-04 -1.29385911E-04  1.96481929E-04 -6.78306220E-05
 -8.54183397E-05 -4.39018944E-05  1.02162983E-05 -1.71157600E-05 -4.56106670E-07
 -2.71493880E-05  1.42961522E-04 -2.46933705E-05  1.48880807E-05 -3.75307690E-04
 -3.75438358E-04  3.65338130E-04  1.51559524E-04  4.44609236E-04  1.05815485E-04
 -1.19860406E-04  1.54695811E-04  2.59768134E-04  2.42900977E-04  2.03048494E-04
 -1.92423352E-04 -2.23068857E-04  5.48930957E-04  8.02903790E-05 -1.00559353E-06
 -4.78619727E-06  1.85813088E-05 -7.19568233E-05 -4.48250315E-06  4.78651834E-05
 -1.43233994E-04  3.40566882E-05  1.39489040E-05 -1.07599389E-04 -2.60244208E-05
 -3.61271246E-07  6.02076326E-05 -1.97610084E-04  6.56440194E-05 -1.80994629E-06
 -1.81449792E-05  2.87258240E-06 -8.23445746E-05 -6.48875666E-07  1.47817523E-04
 -3.42628670E-05  4.14738424E-05 -1.09721235E-04  2.41436440E-05 -6.91028830E-06
  2.84472340E-05  4.70027370E-05  9.93009784E-01  1.96983059E-02  3.71780519E-04
  4.69793643E-04 -4.47085191E-04  1.48488154E-02 -2.15716421E-04 -3.11757703E-04
  2.95601450E-04 -8.04673739E-03 -8.15429748E-03 -8.13822485E-03 -1.73604227E-04
  1.64060170E-04  2.10060465E-04  1.65224074E-06  3.12532431E-05  7.33091976E-06
 -1.04376759E-06  4.08261882E-07  1.21612357E-04 -1.09016356E-04  1.48873930E-05
 -3.18955959E-06 -1.13239449E-03  5.09120080E-04  1.75136757E-04 -1.84540209E-04
  1.09692328E-05  2.90784232E-05  2.38182109E-05 -6.43576217E-07 -1.36640348E-06
 -2.83809354E-05 -2.88041898E-05 -1.24899808E-04  2.83466700E-05  1.47797147E-05
  4.99462301E-06  6.04522718E-04 -1.81994343E-04 -1.00654744E-04 -9.37572257E-05
 -7.74394041E-05 -8.17739407E-05 -8.92926424E-05  1.47851805E-05  1.99562816E-05
  7.63926652E-06 -2.92106589E-05 -1.25623542E-04  2.95940254E-05 -3.24883866E-06
 -1.81683232E-05  6.09047927E-04 -1.79782916E-04  8.49159543E-05  1.26026704E-04
 -8.16730536E-05 -9.08162841E-05 -8.05997164E-05 -1.84495737E-05 -1.75566153E-05
  8.79104060E-06 -2.97056023E-07 -2.41140000E-06  1.06222871E-05 -3.99306776E-06
  5.33113709E-07  3.53036270E-05 -6.24938269E-05 -4.15920132E-06  1.58110415E-05
 -1.33904569E-06 -1.45670485E-07  2.33055127E-06  5.43520342E-06 -4.97703032E-06
  4.98296941E-06  3.75534711E-06 -1.46501125E-05 -3.00359293E-05 -1.34404989E-06
 -3.19474583E-04 -9.36263422E-05 -5.54957774E-04  3.12520698E-04  4.84135125E-04
 -7.15725397E-05  8.11198870E-05  9.80061133E-05  5.78934111E-05  4.74120682E-04
  5.25257334E-05  2.28465448E-04  8.98648545E-05  9.93010963E-01  1.97135651E-02
  2.85296069E-04  1.30342160E-04  6.81742748E-04  1.47682685E-02 -1.59617671E-04
 -8.55578242E-05 -4.80411613E-04 -7.99350420E-03 -7.97863345E-03 -8.35836263E-03
 -4.02722399E-05 -1.97703484E-04 -8.37401024E-05 -1.50797807E-04  3.87377009E-05
 -2.92945878E-07 -1.09638042E-05 -1.46005658E-05  2.13460010E-05 -8.53480498E-06
  8.28592846E-05  1.20714279E-04  2.81005063E-05 -4.44965002E-05 -8.22059712E-05
  1.71471510E-05 -1.73801910E-05 -9.01448664E-05 -5.43028537E-04  7.09105139E-05
  4.85591662E-06  3.39177659E-06 -1.93963655E-05 -1.26147520E-04 -4.13945541E-05
 -2.41923686E-05  1.61025267E-04  4.83494740E-05  5.09410800E-05 -1.05978765E-04
 -2.68213373E-05  1.05259005E-05  3.97450324E-05  2.90963304E-06  5.04720900E-05
  6.53925641E-06 -7.02193054E-07 -3.52572934E-06  2.09328279E-04 -9.37117028E-05
  2.89421676E-05  1.39627505E-05 -1.39050893E-03  5.32654474E-04  2.52781713E-05
  7.17569183E-04  2.69534012E-05  2.51351363E-05  3.73947457E-05 -5.04271335E-06
  6.43963575E-06 -4.84744558E-06  1.39923625E-05  5.09351465E-05  1.15428369E-05
 -8.95762963E-06  6.22209358E-07 -2.71481882E-04 -5.02852233E-05  4.58237498E-05
 -1.24232429E-05  4.27636096E-05  4.26455813E-05  4.63943562E-05 -3.00976241E-06
  2.16961284E-06 -6.23656503E-06 -3.78766052E-05 -1.72683311E-04  1.81837592E-05
 -1.91639484E-05  1.56794186E-05  8.88747602E-04 -1.82224723E-04  2.13976128E-04
 -6.74822722E-05 -9.88501791E-05 -9.27940912E-05 -1.23275282E-04 -2.33681831E-05
 -9.10108037E-08 -1.98020231E-05 -3.47147355E-05 -1.60960718E-04  8.94231827E-06
  2.17331616E-05 -5.25025240E-07  8.08885784E-04 -1.37359741E-04 -2.13523196E-04
  4.65452012E-05 -9.46091774E-05 -7.74057028E-05 -1.12533700E-04  2.36047272E-05
 -7.33087735E-06  7.22980875E-06 -1.24329460E-05  1.62639848E-05 -2.14979955E-05
 -1.46540151E-04  2.78590888E-05  4.65115156E-06  2.20047727E-05  1.06209814E-03
  4.43864673E-04 -7.10755578E-04  4.41618838E-05  5.37721382E-05 -2.98531860E-05
  2.74173330E-06  3.42220524E-05 -1.44965290E-05 -3.03107950E-05 -3.35913213E-05
 -1.76190608E-04 -3.55420399E-05 -1.38653575E-05  3.25159398E-06  4.89355101E-04
  1.22229652E-04  1.17236670E-04 -4.69774495E-05 -8.95807561E-05 -1.55979569E-04
 -1.64736215E-04  1.03513849E-05 -8.01639100E-06  3.31420919E-05 -4.83096503E-05
 -2.81032809E-04 -1.35108657E-05  1.18971073E-05  4.47416823E-06  9.81981603E-04
  1.01216544E-04 -1.04605657E-04 -7.74800490E-05 -1.57333578E-04 -1.85196659E-04
 -1.94773619E-04 -7.11820284E-06 -1.17111369E-05  1.38121393E-05  5.14415533E-05
  2.90274863E-04  3.34277092E-05  3.06324163E-06 -2.25389087E-05 -1.04396666E-03