PFMS Time step 0                                                        
SP        RB3LYP                                                      6-31G(d)            
Number of atoms                            I                9
Info1-9                                    I   N=           9
          18          18           0           0           0         110
           1          18        -502
Full Title                                 C   N=           2
PFMS Time step 0        
Route                                      C   N=           4
# B3LYP/6-31G(d) pop=full density=current       
Charge                                     I                0
Multiplicity                               I                1
Number of electrons                        I               74
Number of alpha electrons                  I               37
Number of beta electrons                   I               37
Number of basis functions                  I              126
Number of independent functions            I              126
Number of point charges in /Mol/           I                0
Number of translation vectors              I                0
Atomic numbers                             I   N=           9
           6           9           9           9          16           8
           8           8           1
Nuclear charges                            R   N=           9
  6.00000000E+00  9.00000000E+00  9.00000000E+00  9.00000000E+00  1.60000000E+01
  8.00000000E+00  8.00000000E+00  8.00000000E+00  1.00000000E+00
Current cartesian coordinates              R   N=          27
 -1.89607661E+00  7.51352422E-03  1.24279885E-02 -2.82720700E+00 -5.02364738E-01
 -2.33822744E+00 -2.68010305E+00  2.38983645E+00  6.15188449E-01 -3.08077532E+00
 -1.59805070E+00  1.64742643E+00  1.59898626E+00 -2.88507255E-01  1.63135208E-01
  2.56995483E+00  5.82705726E-01  2.57796517E+00  2.45865996E+00 -2.65391090E+00
 -9.06547082E-01  2.42374413E+00  1.91975215E+00 -1.81220729E+00  3.46657644E+00
  3.17786997E+00 -8.77904685E-01
Number of symbols in /Mol/                 I                0
Int Atom Types                             I   N=           9
           0           0           0           0           0           0
           0           0           0
Force Field                                I                0
Atom Types                                 C   N=           9
                                                            
                                                
MM charges                                 R   N=           9
  0.00000000E+00  0.00000000E+00  0.00000000E+00  0.00000000E+00  0.00000000E+00
  0.00000000E+00  0.00000000E+00  0.00000000E+00  0.00000000E+00
Integer atomic weights                     I   N=           9
          12          19          19          19          32          16
          16          16           1
Real atomic weights                        R   N=           9
  1.20000000E+01  1.89984032E+01  1.89984032E+01  1.89984032E+01  3.19720718E+01
  1.59949146E+01  1.59949146E+01  1.59949146E+01  1.00782504E+00
Atom fragment info                         I   N=           9
           0           0           0           0           0           0
           0           0           0
Atom residue num                           I   N=           9
           0           0           0           0           0           0
           0           0           0
Nuclear spins                              I   N=           9
           0           1           1           1           0           0
           0           0           1
Nuclear ZEff                               R   N=           9
 -3.60000000E+00 -6.75000000E+00 -6.75000000E+00 -6.75000000E+00 -1.36000000E+01
 -5.60000000E+00 -5.60000000E+00 -5.60000000E+00 -1.00000000E+00
Nuclear ZNuc                               R   N=           9
  6.00000000E+00  9.00000000E+00  9.00000000E+00  9.00000000E+00  1.60000000E+01
  8.00000000E+00  8.00000000E+00  8.00000000E+00  1.00000000E+00
Nuclear QMom                               R   N=           9
  0.00000000E+00  0.00000000E+00  0.00000000E+00  0.00000000E+00  0.00000000E+00
  0.00000000E+00  0.00000000E+00  0.00000000E+00  0.00000000E+00
Nuclear GFac                               R   N=           9
  0.00000000E+00  2.62886700E+00  2.62886700E+00  2.62886700E+00  0.00000000E+00
  0.00000000E+00  0.00000000E+00  0.00000000E+00  2.79284600E+00
MicOpt                                     I   N=           9
          -1          -1          -1          -1          -1          -1
          -1          -1          -1
Number of residues                         I                0
Number of secondary structures             I                0
SymInf integers                            I   N=          26
           1           1           1           1           1           0
           0           0           0           0           0           0
           0           0           0           0           0           0
           0           0           0           0           0           0
           0           0
RotTr to input orientation                 R   N=          12
  9.62778893E-01  1.98223250E-02  2.69562384E-01 -1.15170595E-01  9.32325914E-01
  3.42788745E-01 -2.44525126E-01 -3.61075428E-01  8.99906661E-01  7.67595516E-02
  2.12569163E-02  2.35195313E-02
Number of contracted shells                I               35
Number of primitive shells                 I               98
Pure/Cartesian d shells                    I                1
Pure/Cartesian f shells                    I                0
Highest angular momentum                   I                2
Largest degree of contraction              I                6
Shell types                                I   N=          35
           0          -1          -1           2           0          -1
          -1           2           0          -1          -1           2
           0          -1          -1           2           0          -1
          -1          -1           2           0          -1          -1
           2           0          -1          -1           2           0
          -1          -1           2           0           0
Number of primitives per shell             I   N=          35
           6           3           1           1           6           3
           1           1           6           3           1           1
           6           3           1           1           6           6
           3           1           1           6           3           1
           1           6           3           1           1           6
           3           1           1           3           1
Shell to atom map                          I   N=          35
           1           1           1           1           2           2
           2           2           3           3           3           3
           4           4           4           4           5           5
           5           5           5           6           6           6
           6           7           7           7           7           8
           8           8           8           9           9
Primitive exponents                        R   N=          98
  3.04752488E+03  4.57369518E+02  1.03948685E+02  2.92101553E+01  9.28666296E+00
  3.16392696E+00  7.86827235E+00  1.88128854E+00  5.44249258E-01  1.68714478E-01
  8.00000000E-01  7.00171309E+03  1.05136609E+03  2.39285690E+02  6.73974453E+01
  2.15199573E+01  7.40310130E+00  2.08479528E+01  4.80830834E+00  1.34406986E+00
  3.58151393E-01  8.00000000E-01  7.00171309E+03  1.05136609E+03  2.39285690E+02
  6.73974453E+01  2.15199573E+01  7.40310130E+00  2.08479528E+01  4.80830834E+00
  1.34406986E+00  3.58151393E-01  8.00000000E-01  7.00171309E+03  1.05136609E+03
  2.39285690E+02  6.73974453E+01  2.15199573E+01  7.40310130E+00  2.08479528E+01
  4.80830834E+00  1.34406986E+00  3.58151393E-01  8.00000000E-01  2.19171000E+04
  3.30149000E+03  7.54146000E+02  2.12711000E+02  6.79896000E+01  2.30515000E+01
  4.23735000E+02  1.00710000E+02  3.21599000E+01  1.18079000E+01  4.63110000E+00
  1.87025000E+00  2.61584000E+00  9.22167000E-01  3.41287000E-01  1.17167000E-01
  6.50000000E-01  5.48467166E+03  8.25234946E+02  1.88046958E+02  5.29645000E+01
  1.68975704E+01  5.79963534E+00  1.55396162E+01  3.59993359E+00  1.01376175E+00
  2.70005823E-01  8.00000000E-01  5.48467166E+03  8.25234946E+02  1.88046958E+02
  5.29645000E+01  1.68975704E+01  5.79963534E+00  1.55396162E+01  3.59993359E+00
  1.01376175E+00  2.70005823E-01  8.00000000E-01  5.48467166E+03  8.25234946E+02
  1.88046958E+02  5.29645000E+01  1.68975704E+01  5.79963534E+00  1.55396162E+01
  3.59993359E+00  1.01376175E+00  2.70005823E-01  8.00000000E-01  1.87311370E+01
  2.82539436E+00  6.40121692E-01  1.61277759E-01
Contraction coefficients                   R   N=          98
  1.83473713E-03  1.40373228E-02  6.88426223E-02  2.32184443E-01  4.67941348E-01
  3.62311985E-01 -1.19332420E-01 -1.60854152E-01  1.14345644E+00  1.00000000E+00
  1.00000000E+00  1.81961690E-03  1.39160796E-02  6.84053245E-02  2.33185760E-01
  4.71267439E-01  3.56618546E-01 -1.08506975E-01 -1.46451658E-01  1.12868858E+00
  1.00000000E+00  1.00000000E+00  1.81961690E-03  1.39160796E-02  6.84053245E-02
  2.33185760E-01  4.71267439E-01  3.56618546E-01 -1.08506975E-01 -1.46451658E-01
  1.12868858E+00  1.00000000E+00  1.00000000E+00  1.81961690E-03  1.39160796E-02
  6.84053245E-02  2.33185760E-01  4.71267439E-01  3.56618546E-01 -1.08506975E-01
 -1.46451658E-01  1.12868858E+00  1.00000000E+00  1.00000000E+00  1.86924085E-03
  1.42303065E-02  6.96962317E-02  2.38487108E-01  4.83307220E-01  3.38074154E-01
 -2.37677050E-03 -3.16930067E-02 -1.13317024E-01  5.60900118E-02  5.92255124E-01
  4.55006095E-01 -2.50373114E-01  6.69567631E-02  1.05450627E+00  1.00000000E+00
  1.00000000E+00  1.83107443E-03  1.39501722E-02  6.84450781E-02  2.32714336E-01
  4.70192898E-01  3.58520853E-01 -1.10777550E-01 -1.48026263E-01  1.13076702E+00
  1.00000000E+00  1.00000000E+00  1.83107443E-03  1.39501722E-02  6.84450781E-02
  2.32714336E-01  4.70192898E-01  3.58520853E-01 -1.10777550E-01 -1.48026263E-01
  1.13076702E+00  1.00000000E+00  1.00000000E+00  1.83107443E-03  1.39501722E-02
  6.84450781E-02  2.32714336E-01  4.70192898E-01  3.58520853E-01 -1.10777550E-01
 -1.48026263E-01  1.13076702E+00  1.00000000E+00  1.00000000E+00  3.34946043E-02
  2.34726953E-01  8.13757326E-01  1.00000000E+00
P(S=P) Contraction coefficients            R   N=          98
  0.00000000E+00  0.00000000E+00  0.00000000E+00  0.00000000E+00  0.00000000E+00
  0.00000000E+00  6.89990666E-02  3.16423961E-01  7.44308291E-01  1.00000000E+00
  0.00000000E+00  0.00000000E+00  0.00000000E+00  0.00000000E+00  0.00000000E+00
  0.00000000E+00  0.00000000E+00  7.16287242E-02  3.45912103E-01  7.22469956E-01
  1.00000000E+00  0.00000000E+00  0.00000000E+00  0.00000000E+00  0.00000000E+00
  0.00000000E+00  0.00000000E+00  0.00000000E+00  7.16287242E-02  3.45912103E-01
  7.22469956E-01  1.00000000E+00  0.00000000E+00  0.00000000E+00  0.00000000E+00
  0.00000000E+00  0.00000000E+00  0.00000000E+00  0.00000000E+00  7.16287242E-02
  3.45912103E-01  7.22469956E-01  1.00000000E+00  0.00000000E+00  0.00000000E+00
  0.00000000E+00  0.00000000E+00  0.00000000E+00  0.00000000E+00  0.00000000E+00
  4.06100998E-03  3.06812999E-02  1.30451999E-01  3.27204999E-01  4.52850998E-01
  2.56041999E-01 -1.45104895E-02  3.10262776E-01  7.54482456E-01  1.00000000E+00
  0.00000000E+00  0.00000000E+00  0.00000000E+00  0.00000000E+00  0.00000000E+00
  0.00000000E+00  0.00000000E+00  7.08742682E-02  3.39752839E-01  7.27158577E-01
  1.00000000E+00  0.00000000E+00  0.00000000E+00  0.00000000E+00  0.00000000E+00
  0.00000000E+00  0.00000000E+00  0.00000000E+00  7.08742682E-02  3.39752839E-01
  7.27158577E-01  1.00000000E+00  0.00000000E+00  0.00000000E+00  0.00000000E+00
  0.00000000E+00  0.00000000E+00  0.00000000E+00  0.00000000E+00  7.08742682E-02
  3.39752839E-01  7.27158577E-01  1.00000000E+00  0.00000000E+00  0.00000000E+00
  0.00000000E+00  0.00000000E+00  0.00000000E+00
Coordinates of each shell                  R   N=         105
 -1.89607661E+00  7.51352422E-03  1.24279885E-02 -1.89607661E+00  7.51352422E-03
  1.24279885E-02 -1.89607661E+00  7.51352422E-03  1.24279885E-02 -1.89607661E+00
  7.51352422E-03  1.24279885E-02 -2.82720700E+00 -5.02364738E-01 -2.33822744E+00
 -2.82720700E+00 -5.02364738E-01 -2.33822744E+00 -2.82720700E+00 -5.02364738E-01
 -2.33822744E+00 -2.82720700E+00 -5.02364738E-01 -2.33822744E+00 -2.68010305E+00
  2.38983645E+00  6.15188449E-01 -2.68010305E+00  2.38983645E+00  6.15188449E-01
 -2.68010305E+00  2.38983645E+00  6.15188449E-01 -2.68010305E+00  2.38983645E+00
  6.15188449E-01 -3.08077532E+00 -1.59805070E+00  1.64742643E+00 -3.08077532E+00
 -1.59805070E+00  1.64742643E+00 -3.08077532E+00 -1.59805070E+00  1.64742643E+00
 -3.08077532E+00 -1.59805070E+00  1.64742643E+00  1.59898626E+00 -2.88507255E-01
  1.63135208E-01  1.59898626E+00 -2.88507255E-01  1.63135208E-01  1.59898626E+00
 -2.88507255E-01  1.63135208E-01  1.59898626E+00 -2.88507255E-01  1.63135208E-01
  1.59898626E+00 -2.88507255E-01  1.63135208E-01  2.56995483E+00  5.82705726E-01
  2.57796517E+00  2.56995483E+00  5.82705726E-01  2.57796517E+00  2.56995483E+00
  5.82705726E-01  2.57796517E+00  2.56995483E+00  5.82705726E-01  2.57796517E+00
  2.45865996E+00 -2.65391090E+00 -9.06547082E-01  2.45865996E+00 -2.65391090E+00
 -9.06547082E-01  2.45865996E+00 -2.65391090E+00 -9.06547082E-01  2.45865996E+00
 -2.65391090E+00 -9.06547082E-01  2.42374413E+00  1.91975215E+00 -1.81220729E+00
  2.42374413E+00  1.91975215E+00 -1.81220729E+00  2.42374413E+00  1.91975215E+00
 -1.81220729E+00  2.42374413E+00  1.91975215E+00 -1.81220729E+00  3.46657644E+00
  3.17786997E+00 -8.77904685E-01  3.46657644E+00  3.17786997E+00 -8.77904685E-01
Num ILSW                                   I              100
ILSW                                       I   N=         100
           0           1           0           0           2           0
           0           0           0           0         402          -1
           5           0           0           0           0           0
           0           0           1           0           0           0
           1           0           0           0           0           0
           0           0      100000           0          -1           0
           0           0           0           0           0           0
           0           0           0           1           0           0
           0 -2000000000           1           0           0           0
           0           0           4          52           0           0
           0           0           5           0           0           0
           0           0           0           0           0           1
           0           0           0           0           0           0
           0           0           0           0           0           0
           0           0           0           0           0           0
           0           0           0           0           0           0
           0           0           0           0
Num RLSW                                   I               52
RLSW                                       R   N=          52
  8.00000000E-01  7.20000000E-01  1.00000000E+00  8.10000000E-01  2.00000000E-01
  0.00000000E+00  0.00000000E+00  1.00000000E+00  0.00000000E+00  0.00000000E+00
  0.00000000E+00  0.00000000E+00  1.00000000E+00  0.00000000E+00  0.00000000E+00
  0.00000000E+00  0.00000000E+00  1.00000000E+00  0.00000000E+00  0.00000000E+00
  0.00000000E+00  0.00000000E+00  1.00000000E+00  0.00000000E+00  0.00000000E+00
  0.00000000E+00  0.00000000E+00  1.00000000E+00  0.00000000E+00  0.00000000E+00
  0.00000000E+00  0.00000000E+00  1.00000000E+00  0.00000000E+00  0.00000000E+00
  0.00000000E+00  0.00000000E+00  0.00000000E+00  1.00000000E+00  1.00000000E+00
  0.00000000E+00  1.00000000E+00  0.00000000E+00  0.00000000E+00  0.00000000E+00
  0.00000000E+00  0.00000000E+00  0.00000000E+00  0.00000000E+00  0.00000000E+00
  0.00000000E+00  0.00000000E+00
MxBond                                     I                4
NBond                                      I   N=           9
           4           1           1           1           4           1
           1           2           1
IBond                                      I   N=          36
           2           3           4           5           1           0
           0           0           1           0           0           0
           1           0           0           0           1           6
           7           8           5           0           0           0
           5           0           0           0           5           9
           0           0           8           0           0           0
RBond                                      R   N=          36
  1.00000000E+00  1.00000000E+00  1.00000000E+00  1.00000000E+00  1.00000000E+00
  0.00000000E+00  0.00000000E+00  0.00000000E+00  1.00000000E+00  0.00000000E+00
  0.00000000E+00  0.00000000E+00  1.00000000E+00  0.00000000E+00  0.00000000E+00
  0.00000000E+00  1.00000000E+00  2.00000000E+00  2.00000000E+00  1.00000000E+00
  2.00000000E+00  0.00000000E+00  0.00000000E+00  0.00000000E+00  2.00000000E+00
  0.00000000E+00  0.00000000E+00  0.00000000E+00  1.00000000E+00  1.00000000E+00
  0.00000000E+00  0.00000000E+00  1.00000000E+00  0.00000000E+00  0.00000000E+00
  0.00000000E+00
Virial Ratio                               R      2.006179226160171E+00
SCF Energy                                 R     -9.619881981671651E+02
Total Energy                               R     -9.619881981671651E+02
RMS Density                                R      7.982895024457387E-09
Job Status                                 I                1
Nuclear derivative order                   I                0
External E-field                           R   N=          35
  0.00000000E+00  0.00000000E+00  0.00000000E+00  0.00000000E+00  0.00000000E+00
  0.00000000E+00  0.00000000E+00  0.00000000E+00  0.00000000E+00  0.00000000E+00
  0.00000000E+00  0.00000000E+00  0.00000000E+00  0.00000000E+00  0.00000000E+00
  0.00000000E+00  0.00000000E+00  0.00000000E+00  0.00000000E+00  0.00000000E+00
  0.00000000E+00  0.00000000E+00  0.00000000E+00  0.00000000E+00  0.00000000E+00
  0.00000000E+00  0.00000000E+00  0.00000000E+00  0.00000000E+00  0.00000000E+00
  0.00000000E+00  0.00000000E+00  0.00000000E+00  0.00000000E+00  0.00000000E+00
IOpCl                                      I                0
IROHF                                      I                0
Alpha Orbital Energies                     R   N=         126
 -8.91744031E+01 -2.47743638E+01 -2.47736376E+01 -2.47722521E+01 -1.92417177E+01
 -1.91975605E+01 -1.91947652E+01 -1.05002703E+01 -8.19952347E+00 -6.16512254E+00
 -6.16291865E+00 -6.16267451E+00 -1.34056125E+00 -1.25573233E+00 -1.25449905E+00
 -1.18831622E+00 -1.07353718E+00 -1.05525583E+00 -7.95600227E-01 -6.97745065E-01
 -6.33482986E-01 -6.20813125E-01 -6.16622793E-01 -5.58623119E-01 -5.15390669E-01
 -4.97380416E-01 -4.95710924E-01 -4.93131223E-01 -4.70973867E-01 -4.60894390E-01
 -4.59263222E-01 -4.39809736E-01 -4.05452094E-01 -3.81429421E-01 -3.63753197E-01
 -3.62621418E-01 -3.41681172E-01 -1.87193720E-02 -1.26318567E-02  2.21902990E-02
  5.45181736E-02  9.23670413E-02  1.39563057E-01  1.57926771E-01  1.86180355E-01
  2.86149418E-01  3.14379471E-01  3.42634491E-01  3.87556606E-01  4.58153630E-01
  4.86060921E-01  5.11072662E-01  6.47025291E-01  6.81164592E-01  7.26824982E-01
  7.55883439E-01  7.92143954E-01  8.10502997E-01  8.77052370E-01  8.80301543E-01
  9.27962274E-01  9.72878291E-01  9.88754716E-01  9.97953035E-01  1.01027131E+00
  1.01708636E+00  1.07677496E+00  1.10062501E+00  1.10764708E+00  1.11472494E+00
  1.16108591E+00  1.16333550E+00  1.18160616E+00  1.27310779E+00  1.28934923E+00
  1.31966690E+00  1.34125793E+00  1.34141966E+00  1.36244787E+00  1.37439397E+00
  1.51300327E+00  1.54718926E+00  1.58739882E+00  1.60339273E+00  1.66316819E+00
  1.71203025E+00  1.73873319E+00  1.75179851E+00  1.76422439E+00  1.77336370E+00
  1.78822006E+00  1.79929747E+00  1.81250782E+00  1.82130364E+00  1.82699144E+00
  1.87087866E+00  1.91590785E+00  1.93185736E+00  1.95189299E+00  2.01177340E+00
  2.01427159E+00  2.03466720E+00  2.08518257E+00  2.12105836E+00  2.16588010E+00
  2.18745868E+00  2.19442497E+00  2.25655436E+00  2.33321768E+00  2.47884231E+00
  2.61829844E+00  2.65850575E+00  2.66217069E+00  2.73468008E+00  2.79157952E+00
  2.91233542E+00  3.00650966E+00  3.00753714E+00  3.58243295E+00  3.81875525E+00
  3.86763581E+00  3.93222865E+00  4.29410756E+00  4.30295351E+00  4.42833050E+00
  5.06196197E+00
Alpha MO coefficients                      R   N=       15876
 -2.58853693E-05 -7.23918670E-05  5.05542772E-05 -3.56319310E-06  2.51620937E-06
  8.38448567E-04  3.88514077E-04 -3.36010154E-05  5.67573902E-06 -4.12118795E-05
 -6.02380482E-06 -3.25045248E-06  6.31613115E-06 -2.53886051E-06 -9.42137156E-07
  1.79001675E-05  1.08229603E-04  1.09710477E-05 -3.36023052E-06 -4.56047088E-06
 -4.06729586E-04 -1.35507816E-04  1.38331812E-06 -5.71144006E-05  5.96618265E-05
  5.00863365E-05  6.84423723E-05 -7.21797593E-06 -2.76073456E-05  8.74287722E-06
  1.78249062E-05  1.05762110E-04  1.11156994E-05  4.68568002E-06  1.66174420E-06
 -3.99860833E-04 -1.30255409E-04  5.92862892E-05  9.17147874E-06  6.41074031E-05
  6.63445615E-05  4.86427157E-05  2.61324988E-05  8.30462062E-06  7.24892057E-06
  1.90136735E-05  1.13579285E-04  1.18491776E-05 -5.70825122E-06  4.49918940E-06
 -4.20995454E-04 -1.46623301E-04 -2.22281190E-05  3.08631710E-05  5.83651988E-05
  6.79226716E-05  6.55767373E-05 -1.83921172E-05  1.82443854E-05 -1.58280672E-05
  9.96122969E-01  1.48654372E-02 -1.14577906E-05  2.27031351E-05 -1.76222839E-05
 -2.41452002E-02  8.81303454E-05 -5.61213504E-05  3.43916965E-05  1.52951537E-03
 -1.49672130E-05 -4.50729465E-05  5.25791491E-05  8.49895781E-03  8.59714206E-03
  8.61950470E-03 -8.23182799E-06  8.26794832E-06  3.66036671E-05  1.48562998E-05
 -3.65190499E-06  3.44951040E-05  4.30258496E-05  1.16164793E-04  4.20188884E-04
 -6.21867593E-05 -9.27727718E-05 -2.76915188E-04  1.40741174E-05  3.12030128E-05
 -1.52654775E-04 -3.71257105E-05 -1.07669908E-04 -8.61264463E-05  1.36768670E-05
 -1.14124407E-05  3.23978674E-05 -1.20757576E-04 -5.41621558E-05  4.41912500E-04
 -5.67356807E-05  2.80876406E-04  1.17614695E-04  1.74101001E-05 -1.48375054E-04
  1.40315540E-05  9.44308883E-05  4.12150645E-05 -1.05374854E-04 -1.21930941E-05
 -2.89299992E-05 -2.00085675E-05 -6.10054845E-06 -1.54237538E-05  6.51656290E-04
  2.79556473E-05 -1.43442457E-04  2.65442150E-04 -4.71168384E-05 -1.00048447E-04
 -9.59834217E-05 -1.21403659E-05  5.76543245E-05  1.12200124E-04 -9.65507011E-05
 -1.28721854E-04 -2.42486327E-05  5.40364724E-05 -3.84551968E-04 -3.76317864E-04
  3.88307037E-04  1.77349389E-04  4.61157573E-04  1.26892498E-04 -1.41540967E-04
  1.38080834E-04  2.35174429E-04  2.44879767E-04  1.85961313E-04 -1.87372356E-04
 -2.13138792E-04  3.58972477E-04  8.15715582E-05 -4.50867421E-08 -3.02974089E-06
  1.73879442E-05 -9.46279222E-05 -1.24107949E-05  3.73058750E-05 -1.50228346E-04
  3.74776054E-05  1.98392838E-05 -1.09995721E-04 -2.58397490E-05 -2.68682368E-06
  5.48204863E-05  1.02782978E-03  9.25464157E-05 -1.21034640E-06 -1.74675101E-05
  2.22791405E-06 -7.92472134E-05 -4.41726673E-06  1.51676950E-04 -3.33329757E-05
  3.26782343E-05 -1.19409138E-04  1.16765547E-05 -4.14109398E-06  2.78075231E-05
  5.07984811E-05  9.93005274E-01  1.96930338E-02  3.70992954E-04  4.64401098E-04
 -4.73761668E-04  1.48866505E-02 -2.16363516E-04 -3.09362111E-04  3.13729693E-04
 -8.05375941E-03 -8.15606412E-03 -8.16332439E-03 -1.68337098E-04  1.69999290E-04
  2.14656014E-04  1.78292977E-06  3.22588228E-05  6.81540849E-06 -9.13840763E-07
  6.05650242E-07  1.30929862E-04 -1.06023814E-04  1.22680566E-05 -5.44697508E-06
 -1.15767207E-03  5.15058085E-04  1.62684945E-04 -1.91315933E-04  7.51553481E-06
  2.70873811E-05  2.40523648E-05 -1.62161066E-08 -6.58834159E-07 -2.88058174E-05
 -2.93806560E-05 -1.27979079E-04  2.79476161E-05  1.46358298E-05  4.95661033E-06
  6.20646469E-04 -1.83003218E-04 -1.02938216E-04 -9.49661807E-05 -7.90338968E-05
 -8.27463823E-05 -9.09302971E-05  1.52143367E-05  1.97551935E-05  7.19895485E-06
 -2.90778328E-05 -1.24896365E-04  2.96044709E-05 -4.20977713E-06 -1.80623632E-05
  6.03414378E-04 -1.79570284E-04  8.93213879E-05  1.22150033E-04 -8.11388873E-05
 -9.02398768E-05 -8.08420970E-05 -1.89918196E-05 -1.71033366E-05  8.98821852E-06
 -5.36388428E-07 -3.48957783E-06  9.92505821E-06 -3.98488332E-06  1.80933048E-07
  4.44870887E-05 -6.09971733E-05 -4.48400126E-06  1.87232523E-05 -3.01732923E-06
 -1.06278107E-07  2.03847585E-06  4.69957019E-06 -4.77998859E-06  5.59290934E-06
  3.12463089E-06 -1.46900653E-05 -3.26981367E-05  1.81637940E-05 -2.96734868E-04
  5.75950695E-04  1.38304295E-04  4.03469412E-04  5.33494605E-04 -3.23036136E-05
  7.74297226E-05  6.11925663E-05  4.64107201E-04  5.91282469E-05 -1.93676019E-04
 -5.57579699E-05  1.20554425E-04  5.12538678E-04  4.29033072E-05  2.93395844E-06
  1.43742964E-05  9.22142838E-06  6.43242566E-05 -2.68922649E-05 -1.26452988E-04
 -7.85480011E-05  1.30477592E-05 -8.94582681E-05 -6.01706634E-05  6.05019023E-06
 -2.56857374E-05 -9.54171272E-05  9.93009429E-01  1.97301304E-02  2.43105399E-04
 -6.95766119E-04 -1.73485114E-04  1.47136068E-02 -1.34539147E-04  5.12547797E-04
  1.21836102E-04 -7.96858550E-03 -8.37270795E-03 -7.99098811E-03  1.71968338E-04
  4.60425569E-05 -1.15266572E-04 -1.02365484E-03  5.27261786E-05  6.03940747E-06
  1.89106389E-05 -3.05546182E-07 -1.03464216E-04 -5.31149266E-05 -1.68646485E-04
  7.92235445E-06  4.54055167E-05 -1.15673456E-04  5.10961309E-05 -2.09364142E-05
  2.81945460E-05  3.04263845E-05  3.62521006E-06  5.57126410E-05  5.04611493E-06
  2.14304581E-06  1.24260521E-06  2.53065465E-04 -8.72254173E-05  3.50880638E-06
 -3.38451978E-05 -1.57011474E-03  4.96819372E-04 -8.78741716E-04 -1.80655537E-04
  2.34274586E-05  3.51949713E-05  1.64724670E-05 -3.62453419E-06  1.50788378E-06
 -2.00465313E-06 -4.49055749E-05 -2.01963458E-04  2.22979732E-05 -1.78362822E-05
  1.88142037E-05  1.05137695E-03 -2.10404145E-04  9.39837090E-05 -2.31111373E-04
 -1.16036503E-04 -1.42300377E-04 -1.17283118E-04 -6.21192149E-06  2.58851388E-05
 -2.27295922E-05  1.57937135E-05  5.76207969E-05  9.18478766E-06 -5.92689211E-06
  8.83032158E-06 -3.21739941E-04 -3.77148808E-05  3.37936951E-05 -4.20837505E-05
  4.55024545E-05  5.64867275E-05  4.62454792E-05 -1.34214729E-06  2.85272604E-06
 -4.26970991E-06 -2.61015208E-05 -1.38783014E-04  8.05872548E-06  1.58603277E-05
 -1.26402978E-05  7.18192069E-04 -1.53559110E-04 -1.26977821E-04  2.00864119E-04
 -6.49520262E-05 -8.21211545E-05 -3.99938161E-05  9.96254553E-06 -1.68440648E-05
  1.53115343E-06 -2.68961255E-05  1.56304804E-04 -2.92251755E-05  3.27551218E-05
 -3.27514622E-04 -1.13109066E-04 -5.65456209E-04  3.25864404E-04  4.94612101E-04
 -5.29611978E-05  1.13101451E-04  8.85794516E-05  5.90690471E-05  4.50707721E-04
  5.64031450E-05  2.16658161E-04  9.49693864E-05  9.93007072E-01  1.97074989E-02
  2.85885035E-04  1.46918956E-04  6.88683205E-04  1.48078287E-02 -1.60541035E-04
 -9.73411025E-05 -4.83679739E-04 -8.00238529E-03 -7.99181391E-03 -8.36821188E-03
 -4.47944677E-05 -1.97238488E-04 -9.52824625E-05 -5.20648277E-04  3.33142971E-05
 -4.78746003E-07 -1.00137386E-05 -1.24324657E-05  2.16283536E-06 -1.01771117E-05
  9.16799458E-05  1.15982360E-04  3.10495875E-05 -4.77364945E-05 -7.54001972E-05
  1.69919083E-05 -1.67785587E-05 -9.15935542E-05 -3.51480829E-04  7.81919115E-05
  5.42286773E-06  3.48817295E-06 -1.78114106E-05 -1.37067877E-04 -4.74506950E-05
 -2.79656212E-05  1.61660510E-04  4.74113052E-05  4.97827187E-05 -1.08981891E-04
 -2.82632048E-05  1.26180700E-05  3.65807691E-05  2.98413980E-06  5.09205795E-05
  6.32874654E-06 -6.69549115E-07 -3.50240984E-06  2.14762572E-04 -9.30788857E-05
  2.62363240E-05  1.28315711E-05 -1.40561064E-03  5.36346350E-04  3.54574406E-05
  6.96956794E-04  2.43481041E-05  2.27474348E-05  3.73264834E-05 -3.77190794E-06
  6.34213311E-06 -3.63345615E-06  1.29754323E-05  4.67860419E-05  1.16870551E-05
 -8.74673506E-06  1.14043617E-06 -2.46984594E-04 -5.30534022E-05  4.43661969E-05
 -1.67096133E-05  3.94129833E-05  3.99330748E-05  4.34893246E-05 -3.05422293E-06
  2.22135242E-06 -6.25416361E-06 -3.75054548E-05 -1.70491798E-04  1.90004117E-05
 -1.92664659E-05  1.59942191E-05  8.71444305E-04 -1.83382172E-04  2.11375382E-04
 -7.10786218E-05 -9.80158469E-05 -9.30908844E-05 -1.21501431E-04 -2.40470128E-05
  6.44455468E-07 -2.01805008E-05 -3.46815900E-05 -1.61691393E-04  9.07234424E-06
  2.18534431E-05 -1.14623476E-06  8.13304052E-04 -1.37674116E-04 -2.12380723E-04
  5.44169585E-05 -9.45639403E-05 -7.65947750E-05 -1.11757806E-04  2.34790903E-05
 -7.66612290E-06  6.75179648E-06 -1.41520485E-05  2.00018816E-05 -2.08370155E-05
 -1.45011604E-04  2.67490427E-05  4.45811366E-06  2.37248986E-05  1.07577753E-03
  4.39334858E-04 -7.34682205E-04  6.97756222E-05  5.57153913E-05 -3.01316096E-05
  7.20764639E-06  3.49614722E-05 -1.46157148E-05 -3.03167107E-05 -3.34817363E-05
 -1.75801825E-04 -3.60214339E-05 -1.48294730E-05  4.33536193E-06  4.86485659E-04
  1.25103658E-04  1.23176254E-04 -5.48184938E-05 -8.78631832E-05 -1.54064183E-04
 -1.67213484E-04  1.08449511E-05 -8.54873548E-06  3.37792989E-05 -4.87974551E-05
 -2.84939414E-04 -1.29701646E-05  1.20006032E-05  4.13364397E-06  9.98781113E-04
  1.03060902E-04 -1.08457015E-04 -7.69121113E-05 -1.58677436E-04 -1.86131889E-04
 -1.96368282E-04 -7.47343465E-06 -1.15478624E-05  1.34370639E-05  5.38128972E-05
  3.03859973E-04  3.36533352E-05  2.18637357E-06 -2.38407663E-05 -1.09642527E-03