 Entering Gaussian System, Link 0=g16
 Input=SO3_ADMP_600K.gjf
 Output=SO3_ADMP_600K.log
 Initial command:
 /apps/easybuild-2022/easybuild/software/Compiler/NVHPC/22.11-CUDA-11.7.0/Gaussian/g16c01-CUDA-11.7.0/g16/l1.exe "/tmp/Gau-89687.inp" -scrdir="/tmp/"
 Default is to use a total of   4 processors:
                                4 via shared-memory
                                1 via Linda
 Entering Link 1 = /apps/easybuild-2022/easybuild/software/Compiler/NVHPC/22.11-CUDA-11.7.0/Gaussian/g16c01-CUDA-11.7.0/g16/l1.exe PID=     89688.
  
 Copyright (c) 1988-2019, Gaussian, Inc.  All Rights Reserved.
  
 This is part of the Gaussian(R) 16 program.  It is based on
 the Gaussian(R) 09 system (copyright 2009, Gaussian, Inc.),
 the Gaussian(R) 03 system (copyright 2003, Gaussian, Inc.),
 the Gaussian(R) 98 system (copyright 1998, Gaussian, Inc.),
 the Gaussian(R) 94 system (copyright 1995, Gaussian, Inc.),
 the Gaussian 92(TM) system (copyright 1992, Gaussian, Inc.),
 the Gaussian 90(TM) system (copyright 1990, Gaussian, Inc.),
 the Gaussian 88(TM) system (copyright 1988, Gaussian, Inc.),
 the Gaussian 86(TM) system (copyright 1986, Carnegie Mellon
 University), and the Gaussian 82(TM) system (copyright 1983,
 Carnegie Mellon University). Gaussian is a federally registered
 trademark of Gaussian, Inc.
  
 This software contains proprietary and confidential information,
 including trade secrets, belonging to Gaussian, Inc.
  
 This software is provided under written license and may be
 used, copied, transmitted, or stored only in accord with that
 written license.
  
 The following legend is applicable only to US Government
 contracts under FAR:
  
                    RESTRICTED RIGHTS LEGEND
  
 Use, reproduction and disclosure by the US Government is
 subject to restrictions as set forth in subparagraphs (a)
 and (c) of the Commercial Computer Software - Restricted
 Rights clause in FAR 52.227-19.
  
 Gaussian, Inc.
 340 Quinnipiac St., Bldg. 40, Wallingford CT 06492
  
  
 ---------------------------------------------------------------
 Warning -- This program may not be used in any manner that
 competes with the business of Gaussian, Inc. or will provide
 assistance to any competitor of Gaussian, Inc.  The licensee
 of this program is prohibited from giving any competitor of
 Gaussian, Inc. access to this program.  By using this program,
 the user acknowledges that Gaussian, Inc. is engaged in the
 business of creating and licensing software in the field of
 computational chemistry and represents and warrants to the
 licensee that it is not a competitor of Gaussian, Inc. and that
 it will not use this program in any manner prohibited above.
 ---------------------------------------------------------------
  

 Cite this work as:
 Gaussian 16, Revision C.01,
 M. J. Frisch, G. W. Trucks, H. B. Schlegel, G. E. Scuseria, 
 M. A. Robb, J. R. Cheeseman, G. Scalmani, V. Barone, 
 G. A. Petersson, H. Nakatsuji, X. Li, M. Caricato, A. V. Marenich, 
 J. Bloino, B. G. Janesko, R. Gomperts, B. Mennucci, H. P. Hratchian, 
 J. V. Ortiz, A. F. Izmaylov, J. L. Sonnenberg, D. Williams-Young, 
 F. Ding, F. Lipparini, F. Egidi, J. Goings, B. Peng, A. Petrone, 
 T. Henderson, D. Ranasinghe, V. G. Zakrzewski, J. Gao, N. Rega, 
 G. Zheng, W. Liang, M. Hada, M. Ehara, K. Toyota, R. Fukuda, 
 J. Hasegawa, M. Ishida, T. Nakajima, Y. Honda, O. Kitao, H. Nakai, 
 T. Vreven, K. Throssell, J. A. Montgomery, Jr., J. E. Peralta, 
 F. Ogliaro, M. J. Bearpark, J. J. Heyd, E. N. Brothers, K. N. Kudin, 
 V. N. Staroverov, T. A. Keith, R. Kobayashi, J. Normand, 
 K. Raghavachari, A. P. Rendell, J. C. Burant, S. S. Iyengar, 
 J. Tomasi, M. Cossi, J. M. Millam, M. Klene, C. Adamo, R. Cammi, 
 J. W. Ochterski, R. L. Martin, K. Morokuma, O. Farkas, 
 J. B. Foresman, and D. J. Fox, Gaussian, Inc., Wallingford CT, 2019.
 
 ******************************************
 Gaussian 16:  ES64L-G16RevC.01  3-Jul-2019
                19-Mar-2025 
 ******************************************
 %chk=SO3_ADMP TRJTRY RSTF=10_600K.chk
 %mem=8GB
 %nprocshared=8
 Will use up to    8 processors via shared memory.
 -----------------------------------
 # B3LYP/6-31G(d) ADMP int=ultrafine
 -----------------------------------
 1/26=4,29=20000,38=1,172=1/1,21;
 2/12=2,17=6,18=5,29=2,40=1/2;
 3/5=1,6=6,7=1,11=2,25=1,30=1,65=-1,71=1,74=-5,75=-5,89=400,90=600/1,2,3;
 4//1;
 5/5=2,14=200,38=5/2;
 6/7=2,8=2,9=2,10=2,28=1/1;
 7/7=1,127=-100/1,2,3,16;
 1/26=4/21(2);
 2/29=1/2;
 99/12=1/99;
 2/29=1/2;
 3/5=1,6=6,7=1,11=2,25=1,30=1,65=-1,71=1,74=-5,75=-5,89=400,90=600/1,2,3;
 5/5=2,14=100/2;
 7/7=1,127=-100/1,2,3,16;
 1/26=4/21(-4);
 2/29=1/2;
 6/7=2,8=2,9=2,10=2,19=2,28=1/1;
 99/9=1,12=1/99;
 --------------------------------------------------------
 SO3 ADMP thermal decomposition simulation targeting 600K
 --------------------------------------------------------
 Symbolic Z-matrix:
 Charge =  0 Multiplicity = 1
 S                     0.03574   0.05793  -0.60942 
 O                    -0.67199   1.2602    0.28606 
 O                     1.42615  -0.09514   0.28028 
 O                    -0.7899   -1.22299   0.04309 
 
 TRJ-TRJ-TRJ-TRJ-TRJ-TRJ-TRJ-TRJ-TRJ-TRJ-TRJ-TRJ-TRJ-TRJ-TRJ-TRJ-TRJ-TRJ
 ------------------------------------------------------------------------
 INPUT DATA FOR L121
 ------------------------------------------------------------------------

 General parameters:
 Maximum Steps                =      50
 Random Number Generator Seed =    398465
 Time Step                    =  0.10000 femtosec
 Ficticious electronic mass   =  0.10000 amu
 MW individual basis funct.   = True 
 Initial nuclear kin. energy  =  0.10000 hartree
 Initial electr. kin. energy  =  0.00000 hartree
   Initial electr. KE scheme  =  0
 Multitime step - NDtrC       =       1
 Multitime step - NDtrP       =       1
 No Thermostats chosen to control nuclear temperature

 Integration parameters:

 Follow Rxn Path (DVV)        = False
 Constraint Scheme            =      10
 Projection of angular mom.   = True 
 Rotate density with nuclei   = True 
 ------------------------------------------------------------------------
 TRJ-TRJ-TRJ-TRJ-TRJ-TRJ-TRJ-TRJ-TRJ-TRJ-TRJ-TRJ-TRJ-TRJ-TRJ-TRJ-TRJ-TRJ
 ---------------------------------------------------------------------------------------------------
                            Z-MATRIX (ANGSTROMS AND DEGREES)
   CD    Cent   Atom    N1       Length/X        N2       Alpha/Y        N3        Beta/Z          J
 ---------------------------------------------------------------------------------------------------
      1      1  S        0   0.035743          0.057933         -0.609424
      2      2  O        0  -0.671994          1.260197          0.286060
      3      3  O        0   1.426147         -0.095138          0.280275
      4      4  O        0  -0.789896         -1.222992          0.043089
 ---------------------------------------------------------------------------------------------------
                         Z-Matrix orientation:                         
 ---------------------------------------------------------------------
 Center     Atomic      Atomic             Coordinates (Angstroms)
 Number     Number       Type             X           Y           Z
 ---------------------------------------------------------------------
      1         16           0        0.035743    0.057933   -0.609424
      2          8           0       -0.671994    1.260197    0.286060
      3          8           0        1.426147   -0.095138    0.280275
      4          8           0       -0.789896   -1.222992    0.043089
 ---------------------------------------------------------------------
                    Distance matrix (angstroms):
                    1          2          3          4
     1  S    0.000000
     2  O    1.657776   0.000000
     3  O    1.657775   2.497831   0.000000
     4  O    1.657776   2.497832   2.497831   0.000000
 Symmetry turned off by external request.
 Stoichiometry    O3S
 Framework group  C3V[C3(S),3SGV(O)]
 Deg. of freedom     2
 Full point group                 C3V     NOp   6
 Rotational constants (GHZ):           8.0571546           8.0571485           5.0641791
 Standard basis: 6-31G(d) (6D, 7F)
    64 basis functions,   136 primitive gaussians,    64 cartesian basis functions
    20 alpha electrons       20 beta electrons
       nuclear repulsion energy       163.2524079563 Hartrees.
 NAtoms=    4 NActive=    4 NUniq=    4 SFac= 1.00D+00 NAtFMM=   60 NAOKFM=F Big=F
 Integral buffers will be    131072 words long.
 Raffenetti 2 integral format.
 Two-electron integral symmetry is turned off.
 One-electron integrals computed using PRISM.
 NBasis=    64 RedAO= T EigKep=  6.21D-03  NBF=    64
 NBsUse=    64 1.00D-06 EigRej= -1.00D+00 NBFU=    64
 ExpMin= 1.17D-01 ExpMax= 2.19D+04 ExpMxC= 3.30D+03 IAcc=3 IRadAn=         5 AccDes= 0.00D+00
 Harris functional with IExCor=  402 and IRadAn=       5 diagonalized for initial guess.
 HarFok:  IExCor=  402 AccDes= 0.00D+00 IRadAn=         5 IDoV= 1 UseB2=F ITyADJ=14
 ICtDFT=  3500011 ScaDFX=  1.000000  1.000000  1.000000  1.000000
 FoFCou: FMM=F IPFlag=           0 FMFlag=      100000 FMFlg1=           0
         NFxFlg=           0 DoJE=T BraDBF=F KetDBF=T FulRan=T
         wScrn=  0.000000 ICntrl=       500 IOpCl=  0 I1Cent=   200000004 NGrid=           0
         NMat0=    1 NMatS0=      1 NMatT0=    0 NMatD0=    1 NMtDS0=    0 NMtDT0=    0
 Symmetry not used in FoFCou.
 Keep R1 ints in memory in canonical form, NReq=9277262.
 Requested convergence on RMS density matrix=1.00D-08 within 128 cycles.
 Requested convergence on MAX density matrix=1.00D-06.
 Requested convergence on             energy=1.00D-06.
 No special actions if energy rises.
 Integral accuracy reduced to 1.0D-05 until final iterations.
 Initial convergence to 1.0D-05 achieved.  Increase integral accuracy.
 SCF Done:  E(RB3LYP) =  -623.565561266     A.U. after   24 cycles
            NFock= 24  Conv=0.48D-08     -V/T= 2.0061

 **********************************************************************

            Population analysis using the SCF Density.

 **********************************************************************

 Alpha  occ. eigenvalues --  -89.15911 -19.23774 -19.23774 -19.23774  -8.19096
 Alpha  occ. eigenvalues --   -6.15404  -6.15390  -6.15390  -1.10619  -0.99003
 Alpha  occ. eigenvalues --   -0.99003  -0.70575  -0.50138  -0.50138  -0.50100
 Alpha  occ. eigenvalues --   -0.37497  -0.37497  -0.33548  -0.33548  -0.31747
 Alpha virt. eigenvalues --   -0.28304  -0.06484  -0.06484   0.04855   0.23486
 Alpha virt. eigenvalues --    0.29326   0.29326   0.30394   0.55459   0.55459
 Alpha virt. eigenvalues --    0.56939   0.76490   0.76490   0.87485   0.89294
 Alpha virt. eigenvalues --    0.89294   0.93106   0.93106   0.94467   1.00318
 Alpha virt. eigenvalues --    1.04222   1.04223   1.20560   1.20561   1.57598
 Alpha virt. eigenvalues --    1.72555   1.74164   1.76064   1.76064   1.76447
 Alpha virt. eigenvalues --    1.76447   1.82152   1.82152   1.82478   1.93759
 Alpha virt. eigenvalues --    1.93759   1.97765   2.24867   2.49421   2.49421
 Alpha virt. eigenvalues --    3.47403   3.47403   3.81907   3.94674
          Condensed to atoms (all electrons):
               1          2          3          4
     1  S   14.163351   0.229539   0.229535   0.229532
     2  O    0.229539   8.257334  -0.052096  -0.052096
     3  O    0.229535  -0.052096   8.257337  -0.052096
     4  O    0.229532  -0.052096  -0.052096   8.257340
 Mulliken charges:
               1
     1  S    1.148043
     2  O   -0.382681
     3  O   -0.382681
     4  O   -0.382681
 Sum of Mulliken charges =  -0.00000
 Mulliken charges with hydrogens summed into heavy atoms:
               1
     1  S    1.148043
     2  O   -0.382681
     3  O   -0.382681
     4  O   -0.382681
 Electronic spatial extent (au):  <R**2>=            267.6858
 Charge=             -0.0000 electrons
 Dipole moment (field-independent basis, Debye):
    X=              0.1529    Y=              0.2478    Z=             -2.6070  Tot=              2.6232
 Quadrupole moment (field-independent basis, Debye-Ang):
   XX=            -31.6077   YY=            -31.5617   ZZ=            -23.4185
   XY=              0.0458   XZ=             -0.4820   YZ=             -0.7812
 Traceless Quadrupole moment (field-independent basis, Debye-Ang):
   XX=             -2.7450   YY=             -2.6991   ZZ=              5.4441
   XY=              0.0458   XZ=             -0.4820   YZ=             -0.7812
 Octapole moment (field-independent basis, Debye-Ang**2):
  XXX=             -3.2054  YYY=             -1.4683  ZZZ=              8.9995  XYY=              2.3107
  XXY=              0.0219  XXZ=              3.6214  XZZ=             -0.0703  YZZ=             -0.1177
  YYZ=              3.8325  XYZ=              0.2501
 Hexadecapole moment (field-independent basis, Debye-Ang**3):
 XXXX=           -133.4864 YYYY=           -132.6899 ZZZZ=            -46.5381 XXXY=              0.2018
 XXXZ=             -1.7899 YYYX=              0.6306 YYYZ=             -4.6923 ZZZX=             -2.0950
 ZZZY=             -3.3901 XXYY=            -44.1205 XXZZ=            -27.1494 YYZZ=            -27.3636
 XXYZ=             -1.8100 YYXZ=             -2.2183 ZZXY=             -0.2522
 N-N= 1.632524079563D+02 E-N=-1.802766897993D+03  KE= 6.197545195002D+02
 Calling FoFJK, ICntrl=      2127 FMM=F ISym2X=0 I1Cent= 0 IOpClX= 0 NMat=1 NMatS=1 NMatT=0.
 -------------------------------------------------------------------
 Center     Atomic                   Forces (Hartrees/Bohr)
 Number     Number              X              Y              Z
 -------------------------------------------------------------------
      1       16          -0.014249101   -0.023092094    0.242927440
      2        8           0.017682678   -0.017374245   -0.082600598
      3        8          -0.023426174    0.009182525   -0.082486559
      4        8           0.019992597    0.031283814   -0.077840282
 -------------------------------------------------------------------
 Cartesian Forces:  Max     0.242927440 RMS     0.082695249
 TRJ-TRJ-TRJ-TRJ-TRJ-TRJ-TRJ-TRJ-TRJ-TRJ-TRJ-TRJ-TRJ-TRJ-TRJ-TRJ-TRJ-TRJ

 ADMP step      0
 Frobenius norm of [F,P] =     5.073902D-13
 Current gradient on entry to l121
 I=    1 X=   1.424910095705D-02 Y=   2.309209417146D-02 Z=  -2.429274399613D-01
 I=    2 X=  -1.768267776962D-02 Y=   1.737424537278D-02 Z=   8.260059826154D-02
 I=    3 X=   2.342617417810D-02 Y=  -9.182525356993D-03 Z=   8.248655921758D-02
 I=    4 X=  -1.999259736548D-02 Y=  -3.128381418724D-02 Z=   7.784028248227D-02

 Summary information for step      0
 Time (fs)     0.000000
 EKinC      =      0.1000000; EKinPA =      0.0000000; EKinPB =      0.0000000
 EKin       =      0.1000000; EPot   =   -623.5655613; ETot   =   -623.4655613
 ETot-EKinP =   -623.4655613
 Integrand for the Velocity-Velocity Auto-Correlation  Function =   1.875165883249D-01
 Angular momentum
   JX =  0.8832976394D-14  JY = -0.8243122088D-14  JZ =  0.4899257292D-13
 Jtot =  0.5046030851D-13 H-BAR;  J (Quantum Number) =  0.0000000000D+00
 Total energy  -6.234655613D+02 A.U.
 Total angular momentum   5.046031D-14 h-bar
 Tr(PA)-NA =  7.461D-14
 Tr(PA**2-PA) =  5.329D-14
 Tr[(PA**2-PA)**2] =  5.155D-16
 Cartesian coordinates:
 I=    1 X=   5.404758537195D-02 Y=   8.760145380503D-02 Z=  -9.215201764742D-01
 I=    2 X=  -1.283381512849D+00 Y=   2.359551143229D+00 Z=   7.706993324559D-01
 I=    3 X=   2.681530347872D+00 Y=  -2.016608138083D-01 Z=   7.597672668252D-01
 I=    4 X=  -1.506184002388D+00 Y=  -2.332995982303D+00 Z=   3.115506862442D-01
 MW Cartesian velocity:
 I=    1 X=   8.856103824751D+13 Y=   8.548953013440D+13 Z=   6.295379031048D+13
 I=    2 X=   1.766346150158D+14 Y=  -1.611004445582D+14 Z=  -4.928042943152D+13
 I=    3 X=  -9.917362347360D+13 Y=   1.833670785305D+14 Z=  -5.865516309590D+13
 I=    4 X=  -2.026704467160D+14 Y=  -1.431335264908D+14 Z=   1.893020209972D+13
 TRJ-TRJ-TRJ-TRJ-TRJ-TRJ-TRJ-TRJ-TRJ-TRJ-TRJ-TRJ-TRJ-TRJ-TRJ-TRJ-TRJ-TRJ
                          Input orientation:                          
 ---------------------------------------------------------------------
 Center     Atomic      Atomic             Coordinates (Angstroms)
 Number     Number       Type             X           Y           Z
 ---------------------------------------------------------------------
      1         16           0        0.029428    0.047155   -0.487039
      2          8           0       -0.676796    1.246486    0.407172
      3          8           0        1.417689   -0.104287    0.401263
      4          8           0       -0.799717   -1.236457    0.165104
 ---------------------------------------------------------------------
                    Distance matrix (angstroms):
                    1          2          3          4
     1  S    0.000000
     2  O    1.654316   0.000000
     3  O    1.655078   2.492286   0.000000
     4  O    1.661455   2.497742   2.500894   0.000000
 Symmetry turned off by external request.
 Stoichiometry    O3S
 Framework group  C1[X(O3S)]
 Deg. of freedom     6
 Full point group                 C1      NOp   1
 Rotational constants (GHZ):           8.0907053           8.0390025           5.0676383
 Standard basis: 6-31G(d) (6D, 7F)
    64 basis functions,   136 primitive gaussians,    64 cartesian basis functions
    20 alpha electrons       20 beta electrons
       nuclear repulsion energy       163.3280211814 Hartrees.
 NAtoms=    4 NActive=    4 NUniq=    4 SFac= 1.00D+00 NAtFMM=   60 NAOKFM=F Big=F
 Integral buffers will be    131072 words long.
 Raffenetti 2 integral format.
 Two-electron integral symmetry is turned off.
 One-electron integrals computed using PRISM.
 NBasis=    64 RedAO= T EigKep=  6.21D-03  NBF=    64
 NBsUse=    64 1.00D-06 EigRej= -1.00D+00 NBFU=    64
 Keep R1 ints in memory in canonical form, NReq=9277262.
 Requested convergence on RMS density matrix=1.00D-08 within 128 cycles.
 Requested convergence on MAX density matrix=1.00D-06.
 Requested convergence on             energy=1.00D-06.
 No special actions if energy rises.
 SCF Done:  E(RB3LYP) =  -623.565852127     A.U. after    1 cycles
            NFock=  1  Conv=0.20D+01     -V/T= 2.0061
 Calling FoFJK, ICntrl=      2127 FMM=F ISym2X=0 I1Cent= 0 IOpClX= 0 NMat=1 NMatS=1 NMatT=0.
 -------------------------------------------------------------------
 Center     Atomic                   Forces (Hartrees/Bohr)
 Number     Number              X              Y              Z
 -------------------------------------------------------------------
      1       16          -0.026157246   -0.040053646    0.233763411
      2        8           0.008868523   -0.005216836   -0.077119514
      3        8          -0.015051345    0.002091809   -0.076810006
      4        8           0.032340068    0.043178674   -0.079833890
 -------------------------------------------------------------------
 Cartesian Forces:  Max     0.233763411 RMS     0.080829830
 TRJ-TRJ-TRJ-TRJ-TRJ-TRJ-TRJ-TRJ-TRJ-TRJ-TRJ-TRJ-TRJ-TRJ-TRJ-TRJ-TRJ-TRJ

 ADMP step      1
 Frobenius norm of [F,P] =     2.196249D-02
 Current gradient on entry to l121
 I=    1 X=   2.615724574468D-02 Y=   4.005364630935D-02 Z=  -2.337634106536D-01
 I=    2 X=  -8.868523448241D-03 Y=   5.216835893771D-03 Z=   7.711951446798D-02
 I=    3 X=   1.505134537454D-02 Y=  -2.091808507797D-03 Z=   7.681000574255D-02
 I=    4 X=  -3.234006767105D-02 Y=  -4.317867369531D-02 Z=   7.983389044299D-02

 Summary information for step      1
 Time (fs)     0.100000
 EKinC      =      0.1002899; EKinPA =      0.0000033; EKinPB =      0.0000033
 EKin       =      0.1002965; EPot   =   -623.5658521; ETot   =   -623.4655556
 ETot-EKinP =   -623.4655622
 Adiabaticity Index =    3.0521D-26
 Total Fictitiious Kinetic Energy =      0.0000663
 Integrand for the Velocity-Velocity Auto-Correlation  Function =   1.877744243921D-01
 Angular momentum
   JX = -0.4733891740D-14  JY =  0.8900480537D-14  JZ =  0.1041329635D-13
 Jtot =  0.1449362017D-13 H-BAR;  J (Quantum Number) =  0.0000000000D+00
 Total energy  -6.234655556D+02  Delta-E   5.670426D-06 A.U.
 Total angular momentum   1.449362D-14  Delta-A  -3.596669D-14 h-bar
 Tr(PA)-NA = -1.066D-14
 Tr(PA**2-PA) = -1.066D-14
 Tr[(PA**2-PA)**2] =  3.806D-16
 Cartesian coordinates:
 I=    1 X=   5.561173247550D-02 Y=   8.910998345225D-02 Z=  -9.203711949152D-01
 I=    2 X=  -1.278959763048D+00 Y=   2.355517899737D+00 Z=   7.694429164924D-01
 I=    3 X=   2.679043747263D+00 Y=  -1.970732167494D-01 Z=   7.582764788486D-01
 I=    4 X=  -1.511245709279D+00 Y=  -2.336565720402D+00 Z=   3.120012026601D-01
 MW Cartesian velocity:
 I=    1 X=   8.822820527198D+13 Y=   8.497125514478D+13 Z=   6.690655877389D+13
 I=    2 X=   1.769427828070D+14 Y=  -1.613695535102D+14 Z=  -5.114081097256D+13
 I=    3 X=  -9.962596820899D+13 Y=   1.834976371209D+14 Z=  -6.051615847318D+13
 I=    4 X=  -2.020557035233D+14 Y=  -1.422622280680D+14 Z=   1.706307197787D+13
 TRJ-TRJ-TRJ-TRJ-TRJ-TRJ-TRJ-TRJ-TRJ-TRJ-TRJ-TRJ-TRJ-TRJ-TRJ-TRJ-TRJ-TRJ
                          Input orientation:                          
 ---------------------------------------------------------------------
 Center     Atomic      Atomic             Coordinates (Angstroms)
 Number     Number       Type             X           Y           Z
 ---------------------------------------------------------------------
      1         16           0        0.030252    0.047947   -0.486395
      2          8           0       -0.674454    1.244350    0.406483
      3          8           0        1.416368   -0.101858    0.400450
      4          8           0       -0.802385   -1.238333    0.165317
 ---------------------------------------------------------------------
                    Distance matrix (angstroms):
                    1          2          3          4
     1  S    0.000000
     2  O    1.650825   0.000000
     3  O    1.652348   2.486735   0.000000
     4  O    1.665092   2.497648   2.503943   0.000000
 Symmetry turned off by external request.
 Stoichiometry    O3S
 Framework group  C1[X(O3S)]
 Deg. of freedom     6
 Full point group                 C1      NOp   1
 Rotational constants (GHZ):           8.1247769           8.0212192           5.0710973
 Standard basis: 6-31G(d) (6D, 7F)
    64 basis functions,   136 primitive gaussians,    64 cartesian basis functions
    20 alpha electrons       20 beta electrons
       nuclear repulsion energy       163.4075453300 Hartrees.
 NAtoms=    4 NActive=    4 NUniq=    4 SFac= 1.00D+00 NAtFMM=   60 NAOKFM=F Big=F
 Integral buffers will be    131072 words long.
 Raffenetti 2 integral format.
 Two-electron integral symmetry is turned off.
 One-electron integrals computed using PRISM.
 NBasis=    64 RedAO= T EigKep=  6.20D-03  NBF=    64
 NBsUse=    64 1.00D-06 EigRej= -1.00D+00 NBFU=    64
 Keep R1 ints in memory in canonical form, NReq=9277262.
 Requested convergence on RMS density matrix=1.00D-08 within 128 cycles.
 Requested convergence on MAX density matrix=1.00D-06.
 Requested convergence on             energy=1.00D-06.
 No special actions if energy rises.
 SCF Done:  E(RB3LYP) =  -623.565953667     A.U. after    1 cycles
            NFock=  1  Conv=0.20D+01     -V/T= 2.0061
 Calling FoFJK, ICntrl=      2127 FMM=F ISym2X=0 I1Cent= 0 IOpClX= 0 NMat=1 NMatS=1 NMatT=0.
 -------------------------------------------------------------------
 Center     Atomic                   Forces (Hartrees/Bohr)
 Number     Number              X              Y              Z
 -------------------------------------------------------------------
      1       16          -0.036127451   -0.054298785    0.225421992
      2        8           0.001471447    0.005147213   -0.072304407
      3        8          -0.007752852   -0.003709369   -0.071908213
      4        8           0.042408856    0.052860940   -0.081209372
 -------------------------------------------------------------------
 Cartesian Forces:  Max     0.225421992 RMS     0.079977924
 TRJ-TRJ-TRJ-TRJ-TRJ-TRJ-TRJ-TRJ-TRJ-TRJ-TRJ-TRJ-TRJ-TRJ-TRJ-TRJ-TRJ-TRJ

 ADMP step      2
 Frobenius norm of [F,P] =     3.836786D-02
 Current gradient on entry to l121
 I=    1 X=   3.612745109526D-02 Y=   5.429878474615D-02 Z=  -2.254219920783D-01
 I=    2 X=  -1.471447465455D-03 Y=  -5.147213386939D-03 Z=   7.230440720762D-02
 I=    3 X=   7.752851934367D-03 Y=   3.709368920550D-03 Z=   7.190821332029D-02
 I=    4 X=  -4.240885556408D-02 Y=  -5.286094027978D-02 Z=   8.120937155033D-02

 Summary information for step      2
 Time (fs)     0.200000
 EKinC      =      0.1003162; EKinPA =      0.0000467; EKinPB =      0.0000467
 EKin       =      0.1004097; EPot   =   -623.5659537; ETot   =   -623.4655440
 ETot-EKinP =   -623.4656374
 Adiabaticity Index =    1.0824D-04
 Integrand for the Velocity-Velocity Auto-Correlation  Function =   1.877582033806D-01
 Angular momentum
   JX =  0.3645039572D-14  JY =  0.8976530689D-14  JZ =  0.6012518345D-13
 Jtot =  0.6090075617D-13 H-BAR;  J (Quantum Number) =  0.0000000000D+00
 Total energy  -6.234655440D+02  Delta-E   1.160528D-05 A.U.
 Total angular momentum   6.090076D-14  Delta-A   4.640714D-14 h-bar
 Tr(PA)-NA =  0.000D+00
 Tr(PA**2-PA) =  1.585D-11
 Tr[(PA**2-PA)**2] =  2.815D-13
 Cartesian coordinates:
 I=    1 X=   5.716828558651D-02 Y=   9.060695316143D-02 Z=  -9.191536394730D-01
 I=    2 X=  -1.274532967409D+00 Y=   2.351481383026D+00 Z=   7.681418854518D-01
 I=    3 X=   2.676548257657D+00 Y=  -1.924844735553D-01 Z=   7.567409779331D-01
 I=    4 X=  -1.516288393456D+00 Y=  -2.340110224374D+00 Z=   3.124039754564D-01
 MW Cartesian velocity:
 I=    1 X=   8.771819334692D+13 Y=   8.420412267213D+13 Z=   7.071542848762D+13
 I=    2 X=   1.770551344695D+14 Y=  -1.613827346530D+14 Z=  -5.285852960321D+13
 I=    3 X=  -9.989718121600D+13 Y=   1.834740472144D+14 Z=  -6.224093986337D+13
 I=    4 X=  -2.011757766117D+14 Y=  -1.411408690233D+14 Z=   1.512051203192D+13
 TRJ-TRJ-TRJ-TRJ-TRJ-TRJ-TRJ-TRJ-TRJ-TRJ-TRJ-TRJ-TRJ-TRJ-TRJ-TRJ-TRJ-TRJ
                          Input orientation:                          
 ---------------------------------------------------------------------
 Center     Atomic      Atomic             Coordinates (Angstroms)
 Number     Number       Type             X           Y           Z
 ---------------------------------------------------------------------
      1         16           0        0.031070    0.048731   -0.485716
      2          8           0       -0.672111    1.242216    0.405773
      3          8           0        1.415045   -0.099431    0.399616
      4          8           0       -0.805041   -1.240192    0.165504
 ---------------------------------------------------------------------
                    Distance matrix (angstroms):
                    1          2          3          4
     1  S    0.000000
     2  O    1.647307   0.000000
     3  O    1.649591   2.481184   0.000000
     4  O    1.668680   2.497549   2.506975   0.000000
 Symmetry turned off by external request.
 Stoichiometry    O3S
 Framework group  C1[X(O3S)]
 Deg. of freedom     6
 Full point group                 C1      NOp   1
 Rotational constants (GHZ):           8.1593297           8.0038138           5.0745516
 Standard basis: 6-31G(d) (6D, 7F)
    64 basis functions,   136 primitive gaussians,    64 cartesian basis functions
    20 alpha electrons       20 beta electrons
       nuclear repulsion energy       163.4908489507 Hartrees.
 NAtoms=    4 NActive=    4 NUniq=    4 SFac= 1.00D+00 NAtFMM=   60 NAOKFM=F Big=F
 Integral buffers will be    131072 words long.
 Raffenetti 2 integral format.
 Two-electron integral symmetry is turned off.
 One-electron integrals computed using PRISM.
 NBasis=    64 RedAO= T EigKep=  6.20D-03  NBF=    64
 NBsUse=    64 1.00D-06 EigRej= -1.00D+00 NBFU=    64
 Keep R1 ints in memory in canonical form, NReq=9277262.
 Requested convergence on RMS density matrix=1.00D-08 within 128 cycles.
 Requested convergence on MAX density matrix=1.00D-06.
 Requested convergence on             energy=1.00D-06.
 No special actions if energy rises.
 SCF Done:  E(RB3LYP) =  -623.566072775     A.U. after    1 cycles
            NFock=  1  Conv=0.20D+01     -V/T= 2.0061
 Calling FoFJK, ICntrl=      2127 FMM=F ISym2X=0 I1Cent= 0 IOpClX= 0 NMat=1 NMatS=1 NMatT=0.
 -------------------------------------------------------------------
 Center     Atomic                   Forces (Hartrees/Bohr)
 Number     Number              X              Y              Z
 -------------------------------------------------------------------
      1       16          -0.042851039   -0.063893748    0.219286012
      2        8          -0.003268479    0.012137063   -0.068932090
      3        8          -0.002573105   -0.007187009   -0.068596041
      4        8           0.048692623    0.058943694   -0.081757881
 -------------------------------------------------------------------
 Cartesian Forces:  Max     0.219286012 RMS     0.079691057
 TRJ-TRJ-TRJ-TRJ-TRJ-TRJ-TRJ-TRJ-TRJ-TRJ-TRJ-TRJ-TRJ-TRJ-TRJ-TRJ-TRJ-TRJ

 ADMP step      3
 Frobenius norm of [F,P] =     4.552499D-02
 Current gradient on entry to l121
 I=    1 X=   4.285103859913D-02 Y=   6.389374793352D-02 Z=  -2.192860115131D-01
 I=    2 X=   3.268479334523D-03 Y=  -1.213706280693D-02 Z=   6.893208983233D-02
 I=    3 X=   2.573104618854D-03 Y=   7.187009177184D-03 Z=   6.859604095995D-02
 I=    4 X=  -4.869262255248D-02 Y=  -5.894369430372D-02 Z=   8.175788072084D-02

 Summary information for step      3
 Time (fs)     0.300000
 EKinC      =      0.1001507; EKinPA =      0.0001921; EKinPB =      0.0001921
 EKin       =      0.1005348; EPot   =   -623.5660728; ETot   =   -623.4655380
 ETot-EKinP =   -623.4659221
 Adiabaticity Index =    5.3434D-04
 Integrand for the Velocity-Velocity Auto-Correlation  Function =   1.875357080972D-01
 Angular momentum
   JX =  0.8591746603D-14  JY =  0.1225836255D-13  JZ =  0.1144074434D-13
 Jtot =  0.1884081190D-13 H-BAR;  J (Quantum Number) =  0.0000000000D+00
 Total energy  -6.234655380D+02  Delta-E   6.036470D-06 A.U.
 Total angular momentum   1.884081D-14  Delta-A  -4.205994D-14 h-bar
 Tr(PA)-NA = -7.105D-15
 Tr(PA**2-PA) = -4.118D-12
 Tr[(PA**2-PA)**2] =  4.665D-13
 Cartesian coordinates:
 I=    1 X=   5.871439317175D-02 Y=   9.208834873668D-02 Z=  -9.178699352310D-01
 I=    2 X=  -1.270105599131D+00 Y=   2.347447480371D+00 Z=   7.667995699049D-01
 I=    3 X=   2.674048094243D+00 Y=  -1.878980561793D-01 Z=   7.551639371788D-01
 I=    4 X=  -1.521306097008D+00 Y=  -2.343623885608D+00 Z=   3.127573484361D-01
 MW Cartesian velocity:
 I=    1 X=   8.707371484947D+13 Y=   8.324747407669D+13 Z=   7.440536387930D+13
 I=    2 X=   1.770204012436D+14 Y=  -1.611989952408D+14 Z=  -5.446284962034D+13
 I=    3 X=  -1.000245836402D+14 Y=   1.833389125656D+14 Z=  -6.385771309220D+13
 I=    4 X=  -2.001024637314D+14 Y=  -1.398369439179D+14 Z=   1.312469715257D+13
 TRJ-TRJ-TRJ-TRJ-TRJ-TRJ-TRJ-TRJ-TRJ-TRJ-TRJ-TRJ-TRJ-TRJ-TRJ-TRJ-TRJ-TRJ
                          Input orientation:                          
 ---------------------------------------------------------------------
 Center     Atomic      Atomic             Coordinates (Angstroms)
 Number     Number       Type             X           Y           Z
 ---------------------------------------------------------------------
      1         16           0        0.031882    0.049505   -0.485002
      2          8           0       -0.669769    1.240085    0.405042
      3          8           0        1.413721   -0.097007    0.398760
      4          8           0       -0.807681   -1.242034    0.165664
 ---------------------------------------------------------------------
                    Distance matrix (angstroms):
                    1          2          3          4
     1  S    0.000000
     2  O    1.643768   0.000000
     3  O    1.646810   2.475638   0.000000
     4  O    1.672216   2.497445   2.509989   0.000000
 Symmetry turned off by external request.
 Stoichiometry    O3S
 Framework group  C1[X(O3S)]
 Deg. of freedom     6
 Full point group                 C1      NOp   1
 Rotational constants (GHZ):           8.1943420           7.9867898           5.0779976
 Standard basis: 6-31G(d) (6D, 7F)
    64 basis functions,   136 primitive gaussians,    64 cartesian basis functions
    20 alpha electrons       20 beta electrons
       nuclear repulsion energy       163.5778273905 Hartrees.
 NAtoms=    4 NActive=    4 NUniq=    4 SFac= 1.00D+00 NAtFMM=   60 NAOKFM=F Big=F
 Integral buffers will be    131072 words long.
 Raffenetti 2 integral format.
 Two-electron integral symmetry is turned off.
 One-electron integrals computed using PRISM.
 NBasis=    64 RedAO= T EigKep=  6.19D-03  NBF=    64
 NBsUse=    64 1.00D-06 EigRej= -1.00D+00 NBFU=    64
 Keep R1 ints in memory in canonical form, NReq=9277262.
 Requested convergence on RMS density matrix=1.00D-08 within 128 cycles.
 Requested convergence on MAX density matrix=1.00D-06.
 Requested convergence on             energy=1.00D-06.
 No special actions if energy rises.
 SCF Done:  E(RB3LYP) =  -623.566352897     A.U. after    1 cycles
            NFock=  1  Conv=0.20D+01     -V/T= 2.0061
 Calling FoFJK, ICntrl=      2127 FMM=F ISym2X=0 I1Cent= 0 IOpClX= 0 NMat=1 NMatS=1 NMatT=0.
 -------------------------------------------------------------------
 Center     Atomic                   Forces (Hartrees/Bohr)
 Number     Number              X              Y              Z
 -------------------------------------------------------------------
      1       16          -0.045729576   -0.067962330    0.216226345
      2        8          -0.004797565    0.014961815   -0.067434840
      3        8          -0.000101548   -0.007929241   -0.067312747
      4        8           0.050628688    0.060929755   -0.081478758
 -------------------------------------------------------------------
 Cartesian Forces:  Max     0.216226345 RMS     0.079459954
 TRJ-TRJ-TRJ-TRJ-TRJ-TRJ-TRJ-TRJ-TRJ-TRJ-TRJ-TRJ-TRJ-TRJ-TRJ-TRJ-TRJ-TRJ

 ADMP step      4
 Frobenius norm of [F,P] =     4.320464D-02
 Current gradient on entry to l121
 I=    1 X=   4.572957582118D-02 Y=   6.796232968979D-02 Z=  -2.162263451109D-01
 I=    2 X=   4.797564780230D-03 Y=  -1.496181514975D-02 Z=   6.743484026871D-02
 I=    3 X=   1.015475328145D-04 Y=   7.929240813024D-03 Z=   6.731274653578D-02
 I=    4 X=  -5.062868813415D-02 Y=  -6.092975535309D-02 Z=   8.147875830639D-02

 Summary information for step      4
 Time (fs)     0.400000
 EKinC      =      0.0998950; EKinPA =      0.0004577; EKinPB =      0.0004577
 EKin       =      0.1008104; EPot   =   -623.5663529; ETot   =   -623.4655425
 ETot-EKinP =   -623.4664579
 Adiabaticity Index =    1.1511D-03
 Integrand for the Velocity-Velocity Auto-Correlation  Function =   1.872022481936D-01
 Angular momentum
   JX = -0.2858786777D-14  JY =  0.1198846394D-13  JZ =  0.3046326555D-13
 Jtot =  0.3286193052D-13 H-BAR;  J (Quantum Number) =  0.0000000000D+00
 Total energy  -6.234655425D+02  Delta-E  -4.535533D-06 A.U.
 Total angular momentum   3.286193D-14  Delta-A   1.402112D-14 h-bar
 Tr(PA)-NA =  1.421D-14
 Tr(PA**2-PA) = -6.431D-11
 Tr[(PA**2-PA)**2] =  7.931D-13
 Cartesian coordinates:
 I=    1 X=   6.024815057725D-02 Y=   9.355148104128D-02 Z=  -9.165218639053D-01
 I=    2 X=  -1.265680540429D+00 Y=   2.343420152091D+00 Z=   7.654183101126D-01
 I=    3 X=   2.671546233503D+00 Y=  -1.833160707916D-01 Z=   7.535475847521D-01
 I=    4 X=  -1.526295107011D+00 Y=  -2.347103182962D+00 Z=   3.130603146261D-01
 MW Cartesian velocity:
 I=    1 X=   8.635318433629D+13 Y=   8.218321206374D+13 Z=   7.801992209812D+13
 I=    2 X=   1.769089610438D+14 Y=  -1.609043862491D+14 Z=  -5.599911509719D+13
 I=    3 X=  -1.000645740194D+14 Y=   1.831516392977D+14 Z=  -6.540969655526D+13
 I=    4 X=  -1.989323319855D+14 Y=  -1.384396036642D+14 Z=   1.110260779668D+13
 TRJ-TRJ-TRJ-TRJ-TRJ-TRJ-TRJ-TRJ-TRJ-TRJ-TRJ-TRJ-TRJ-TRJ-TRJ-TRJ-TRJ-TRJ
                          Input orientation:                          
 ---------------------------------------------------------------------
 Center     Atomic      Atomic             Coordinates (Angstroms)
 Number     Number       Type             X           Y           Z
 ---------------------------------------------------------------------
      1         16           0        0.032687    0.050269   -0.484256
      2          8           0       -0.667429    1.237958    0.404291
      3          8           0        1.412397   -0.094585    0.397885
      4          8           0       -0.810305   -1.243856    0.165798
 ---------------------------------------------------------------------
                    Distance matrix (angstroms):
                    1          2          3          4
     1  S    0.000000
     2  O    1.640208   0.000000
     3  O    1.644006   2.470099   0.000000
     4  O    1.675698   2.497337   2.512985   0.000000
 Symmetry turned off by external request.
 Stoichiometry    O3S
 Framework group  C1[X(O3S)]
 Deg. of freedom     6
 Full point group                 C1      NOp   1
 Rotational constants (GHZ):           8.2298086           7.9701435           5.0814342
 Standard basis: 6-31G(d) (6D, 7F)
    64 basis functions,   136 primitive gaussians,    64 cartesian basis functions
    20 alpha electrons       20 beta electrons
       nuclear repulsion energy       163.6684216443 Hartrees.
 NAtoms=    4 NActive=    4 NUniq=    4 SFac= 1.00D+00 NAtFMM=   60 NAOKFM=F Big=F
 Integral buffers will be    131072 words long.
 Raffenetti 2 integral format.
 Two-electron integral symmetry is turned off.
 One-electron integrals computed using PRISM.
 NBasis=    64 RedAO= T EigKep=  6.19D-03  NBF=    64
 NBsUse=    64 1.00D-06 EigRej= -1.00D+00 NBFU=    64
 Keep R1 ints in memory in canonical form, NReq=9277262.
 Requested convergence on RMS density matrix=1.00D-08 within 128 cycles.
 Requested convergence on MAX density matrix=1.00D-06.
 Requested convergence on             energy=1.00D-06.
 No special actions if energy rises.
 SCF Done:  E(RB3LYP) =  -623.566792903     A.U. after    1 cycles
            NFock=  1  Conv=0.20D+01     -V/T= 2.0061
 Calling FoFJK, ICntrl=      2127 FMM=F ISym2X=0 I1Cent= 0 IOpClX= 0 NMat=1 NMatS=1 NMatT=0.
 -------------------------------------------------------------------
 Center     Atomic                   Forces (Hartrees/Bohr)
 Number     Number              X              Y              Z
 -------------------------------------------------------------------
      1       16          -0.044946759   -0.066793579    0.216417551
      2        8          -0.003352671    0.013762367   -0.067817306
      3        8          -0.000367358   -0.006223993   -0.068039162
      4        8           0.048666789    0.059255206   -0.080561083
 -------------------------------------------------------------------
 Cartesian Forces:  Max     0.216417551 RMS     0.079139068
 TRJ-TRJ-TRJ-TRJ-TRJ-TRJ-TRJ-TRJ-TRJ-TRJ-TRJ-TRJ-TRJ-TRJ-TRJ-TRJ-TRJ-TRJ

 ADMP step      5
 Frobenius norm of [F,P] =     3.558251D-02
 Current gradient on entry to l121
 I=    1 X=   4.494675947333D-02 Y=   6.679357903730D-02 Z=  -2.164175509563D-01
 I=    2 X=   3.352670901469D-03 Y=  -1.376236668801D-02 Z=   6.781730591792D-02
 I=    3 X=   3.673582590693D-04 Y=   6.223993458786D-03 Z=   6.803916176869D-02
 I=    4 X=  -4.866678863385D-02 Y=  -5.925520580808D-02 Z=   8.056108326962D-02

 Summary information for step      5
 Time (fs)     0.500000
 EKinC      =      0.0996562; EKinPA =      0.0007920; EKinPB =      0.0007920
 EKin       =      0.1012402; EPot   =   -623.5667929; ETot   =   -623.4655527
 ETot-EKinP =   -623.4671367
 Adiabaticity Index =    1.6221D-03
 Integrand for the Velocity-Velocity Auto-Correlation  Function =   1.868581967581D-01
 Angular momentum
   JX = -0.1833808606D-13  JY = -0.8629237668D-14  JZ = -0.1736462321D-14
 Jtot =  0.2034120066D-13 H-BAR;  J (Quantum Number) =  0.0000000000D+00
 Total energy  -6.234655527D+02  Delta-E  -1.021443D-05 A.U.
 Total angular momentum   2.034120D-14  Delta-A  -1.252073D-14 h-bar
 Tr(PA)-NA =  0.000D+00
 Tr(PA**2-PA) =  3.007D-11
 Tr[(PA**2-PA)**2] =  2.580D-13
 Cartesian coordinates:
 I=    1 X=   6.176877243806D-02 Y=   9.499523284171D-02 Z=  -9.151103099288D-01
 I=    2 X=  -1.261258745047D+00 Y=   2.339400982228D+00 Z=   7.639991690819D-01
 I=    3 X=   2.669044070252D+00 Y=  -1.787390185673D-01 Z=   7.518929324899D-01
 I=    4 X=  -1.531254294676D+00 Y=  -2.350546966077D+00 Z=   3.133125670669D-01
 MW Cartesian velocity:
 I=    1 X=   8.561821419910D+13 Y=   8.109773023845D+13 Z=   8.161125782256D+13
 I=    2 X=   1.767952719758D+14 Y=  -1.605922336170D+14 Z=  -5.751848749026D+13
 I=    3 X=  -1.000806470788D+14 Y=   1.829730890294D+14 Z=  -6.694583286927D+13
 I=    4 X=  -1.977634536479D+14 Y=  -1.370385290341D+14 Z=   9.080610658044D+12
 TRJ-TRJ-TRJ-TRJ-TRJ-TRJ-TRJ-TRJ-TRJ-TRJ-TRJ-TRJ-TRJ-TRJ-TRJ-TRJ-TRJ-TRJ
                          Input orientation:                          
 ---------------------------------------------------------------------
 Center     Atomic      Atomic             Coordinates (Angstroms)
 Number     Number       Type             X           Y           Z
 ---------------------------------------------------------------------
      1         16           0        0.033484    0.051023   -0.483475
      2          8           0       -0.665091    1.235835    0.403520
      3          8           0        1.411073   -0.092165    0.396989
      4          8           0       -0.812914   -1.245660    0.165905
 ---------------------------------------------------------------------
                    Distance matrix (angstroms):
                    1          2          3          4
     1  S    0.000000
     2  O    1.636626   0.000000
     3  O    1.641179   2.464565   0.000000
     4  O    1.679128   2.497224   2.515963   0.000000
 Symmetry turned off by external request.
 Stoichiometry    O3S
 Framework group  C1[X(O3S)]
 Deg. of freedom     6
 Full point group                 C1      NOp   1
 Rotational constants (GHZ):           8.2657415           7.9538653           5.0848618
 Standard basis: 6-31G(d) (6D, 7F)
    64 basis functions,   136 primitive gaussians,    64 cartesian basis functions
    20 alpha electrons       20 beta electrons
       nuclear repulsion energy       163.7626268933 Hartrees.
 NAtoms=    4 NActive=    4 NUniq=    4 SFac= 1.00D+00 NAtFMM=   60 NAOKFM=F Big=F
 Integral buffers will be    131072 words long.
 Raffenetti 2 integral format.
 Two-electron integral symmetry is turned off.
 One-electron integrals computed using PRISM.
 NBasis=    64 RedAO= T EigKep=  6.19D-03  NBF=    64
 NBsUse=    64 1.00D-06 EigRej= -1.00D+00 NBFU=    64
 Keep R1 ints in memory in canonical form, NReq=9277262.
 Requested convergence on RMS density matrix=1.00D-08 within 128 cycles.
 Requested convergence on MAX density matrix=1.00D-06.
 Requested convergence on             energy=1.00D-06.
 No special actions if energy rises.
 SCF Done:  E(RB3LYP) =  -623.567311539     A.U. after    1 cycles
            NFock=  1  Conv=0.20D+01     -V/T= 2.0061
 Calling FoFJK, ICntrl=      2127 FMM=F ISym2X=0 I1Cent= 0 IOpClX= 0 NMat=1 NMatS=1 NMatT=0.
 -------------------------------------------------------------------
 Center     Atomic                   Forces (Hartrees/Bohr)
 Number     Number              X              Y              Z
 -------------------------------------------------------------------
      1       16          -0.041335146   -0.061629660    0.219340544
      2        8           0.000168635    0.009496918   -0.069692128
      3        8          -0.002873359   -0.002926715   -0.070337551
      4        8           0.044039870    0.055059456   -0.079310866
 -------------------------------------------------------------------
 Cartesian Forces:  Max     0.219340544 RMS     0.078946056
 TRJ-TRJ-TRJ-TRJ-TRJ-TRJ-TRJ-TRJ-TRJ-TRJ-TRJ-TRJ-TRJ-TRJ-TRJ-TRJ-TRJ-TRJ

 ADMP step      6
 Frobenius norm of [F,P] =     3.135249D-02
 Current gradient on entry to l121
 I=    1 X=   4.133514578914D-02 Y=   6.162965981722D-02 Z=  -2.193405443942D-01
 I=    2 X=  -1.686348571912D-04 Y=  -9.496918352674D-03 Z=   6.969212815544D-02
 I=    3 X=   2.873358786744D-03 Y=   2.926714527447D-03 Z=   7.033755062151D-02
 I=    4 X=  -4.403986971865D-02 Y=  -5.505945599199D-02 Z=   7.931086561732D-02

 Summary information for step      6
 Time (fs)     0.600000
 EKinC      =      0.0995234; EKinPA =      0.0011134; EKinPB =      0.0011134
 EKin       =      0.1017502; EPot   =   -623.5673115; ETot   =   -623.4655614
 ETot-EKinP =   -623.4677881
 Adiabaticity Index =    1.7329D-03
 Integrand for the Velocity-Velocity Auto-Correlation  Function =   1.865872372575D-01
 Angular momentum
   JX =  0.3810460615D-14  JY =  0.6111512596D-14  JZ = -0.9106639867D-14
 Jtot =  0.1161038699D-13 H-BAR;  J (Quantum Number) =  0.0000000000D+00
 Total energy  -6.234655614D+02  Delta-E  -8.656918D-06 A.U.
 Total angular momentum   1.161039D-14  Delta-A  -8.730814D-15 h-bar
 Tr(PA)-NA =  1.776D-14
 Tr(PA**2-PA) =  4.971D-11
 Tr[(PA**2-PA)**2] =  4.075D-13
 Cartesian coordinates:
 I=    1 X=   6.327653337839D-02 Y=   9.641997081023D-02 Z=  -9.136352102664D-01
 I=    2 X=  -1.256839371702D+00 Y=   2.335389264060D+00 Z=   7.625419285944D-01
 I=    3 X=   2.666541405731D+00 Y=  -1.741659621121D-01 Z=   7.501997610386D-01
 I=    4 X=  -1.536184851472D+00 Y=  -2.353956198564D+00 Z=   3.135144173296D-01
 MW Cartesian velocity:
 I=    1 X=   8.492164866885D+13 Y=   8.006472881720D+13 Z=   8.522862795399D+13
 I=    2 X=   1.767405373251D+14 Y=  -1.603430834008D+14 Z=  -5.906712652155D+13
 I=    3 X=  -1.001305735667D+14 Y=   1.828509175986D+14 Z=  -6.851088517093D+13
 I=    4 X=  -1.966739735385D+14 Y=  -1.357050287228D+14 Z=   7.079988154109D+12
 TRJ-TRJ-TRJ-TRJ-TRJ-TRJ-TRJ-TRJ-TRJ-TRJ-TRJ-TRJ-TRJ-TRJ-TRJ-TRJ-TRJ-TRJ
                          Input orientation:                          
 ---------------------------------------------------------------------
 Center     Atomic      Atomic             Coordinates (Angstroms)
 Number     Number       Type             X           Y           Z
 ---------------------------------------------------------------------
      1         16           0        0.034276    0.051768   -0.482660
      2          8           0       -0.662752    1.233715    0.402728
      3          8           0        1.409748   -0.089746    0.396072
      4          8           0       -0.815509   -1.247447    0.165985
 ---------------------------------------------------------------------
                    Distance matrix (angstroms):
                    1          2          3          4
     1  S    0.000000
     2  O    1.633021   0.000000
     3  O    1.638328   2.459034   0.000000
     4  O    1.682509   2.497107   2.518925   0.000000
 Symmetry turned off by external request.
 Stoichiometry    O3S
 Framework group  C1[X(O3S)]
 Deg. of freedom     6
 Full point group                 C1      NOp   1
 Rotational constants (GHZ):           8.3021658           7.9379427           5.0882829
 Standard basis: 6-31G(d) (6D, 7F)
    64 basis functions,   136 primitive gaussians,    64 cartesian basis functions
    20 alpha electrons       20 beta electrons
       nuclear repulsion energy       163.8604886813 Hartrees.
 NAtoms=    4 NActive=    4 NUniq=    4 SFac= 1.00D+00 NAtFMM=   60 NAOKFM=F Big=F
 Integral buffers will be    131072 words long.
 Raffenetti 2 integral format.
 Two-electron integral symmetry is turned off.
 One-electron integrals computed using PRISM.
 NBasis=    64 RedAO= T EigKep=  6.18D-03  NBF=    64
 NBsUse=    64 1.00D-06 EigRej= -1.00D+00 NBFU=    64
 Keep R1 ints in memory in canonical form, NReq=9277262.
 Requested convergence on RMS density matrix=1.00D-08 within 128 cycles.
 Requested convergence on MAX density matrix=1.00D-06.
 Requested convergence on             energy=1.00D-06.
 No special actions if energy rises.
 SCF Done:  E(RB3LYP) =  -623.567849182     A.U. after    1 cycles
            NFock=  1  Conv=0.20D+01     -V/T= 2.0061
 Calling FoFJK, ICntrl=      2127 FMM=F ISym2X=0 I1Cent= 0 IOpClX= 0 NMat=1 NMatS=1 NMatT=0.
 -------------------------------------------------------------------
 Center     Atomic                   Forces (Hartrees/Bohr)
 Number     Number              X              Y              Z
 -------------------------------------------------------------------
      1       16          -0.036093116   -0.054225077    0.223961028
      2        8           0.004516902    0.003619780   -0.072415151
      3        8          -0.006755154    0.000828179   -0.073495161
      4        8           0.038331368    0.049777117   -0.078050716
 -------------------------------------------------------------------
 Cartesian Forces:  Max     0.223961028 RMS     0.079144330
 TRJ-TRJ-TRJ-TRJ-TRJ-TRJ-TRJ-TRJ-TRJ-TRJ-TRJ-TRJ-TRJ-TRJ-TRJ-TRJ-TRJ-TRJ

 ADMP step      7
 Frobenius norm of [F,P] =     3.592338D-02
 Current gradient on entry to l121
 I=    1 X=   3.609311555511D-02 Y=   5.422507665316D-02 Z=  -2.239610284878D-01
 I=    2 X=  -4.516902134078D-03 Y=  -3.619780067575D-03 Z=   7.241515121992D-02
 I=    3 X=   6.755154190639D-03 Y=  -8.281793939868D-04 Z=   7.349516126518D-02
 I=    4 X=  -3.833136761172D-02 Y=  -4.977711719159D-02 Z=   7.805071600266D-02

 Summary information for step      7
 Time (fs)     0.700000
 EKinC      =      0.0995519; EKinPA =      0.0013654; EKinPB =      0.0013654
 EKin       =      0.1022827; EPot   =   -623.5678492; ETot   =   -623.4655665
 ETot-EKinP =   -623.4682973
 Adiabaticity Index =    1.5326D-03
 Integrand for the Velocity-Velocity Auto-Correlation  Function =   1.864412364240D-01
 Angular momentum
   JX = -0.8696902586D-14  JY = -0.4599780040D-14  JZ = -0.3035956197D-13
 Jtot =  0.3191390127D-13 H-BAR;  J (Quantum Number) =  0.0000000000D+00
 Total energy  -6.234655665D+02  Delta-E  -5.101082D-06 A.U.
 Total angular momentum   3.191390D-14  Delta-A   2.030351D-14 h-bar
 Tr(PA)-NA =  0.000D+00
 Tr(PA**2-PA) =  6.775D-11
 Tr[(PA**2-PA)**2] =  5.475D-13
 Cartesian coordinates:
 I=    1 X=   6.477251717484D-02 Y=   9.782718454726D-02 Z=  -9.120957070961D-01
 I=    2 X=  -1.252420313488D+00 Y=   2.331382553688D+00 Z=   7.610453433039D-01
 I=    3 X=   2.664036745759D+00 Y=  -1.695950194304D-01 Z=   7.484668437226D-01
 I=    4 X=  -1.541089556472D+00 Y=  -2.357333296066D+00 Z=   3.136666227447D-01
 MW Cartesian velocity:
 I=    1 X=   8.429913363705D+13 Y=   7.913339048465D+13 Z=   8.890840052113D+13
 I=    2 X=   1.767804983381D+14 Y=  -1.602096940636D+14 Z=  -6.067765911828D+13
 I=    3 X=  -1.002559037474D+14 Y=   1.828098366036D+14 Z=  -7.013738577158D+13
 I=    4 X=  -1.957084795495D+14 Y=  -1.344805913774D+14 Z=   5.114481640886D+12
 TRJ-TRJ-TRJ-TRJ-TRJ-TRJ-TRJ-TRJ-TRJ-TRJ-TRJ-TRJ-TRJ-TRJ-TRJ-TRJ-TRJ-TRJ
                          Input orientation:                          
 ---------------------------------------------------------------------
 Center     Atomic      Atomic             Coordinates (Angstroms)
 Number     Number       Type             X           Y           Z
 ---------------------------------------------------------------------
      1         16           0        0.035062    0.052504   -0.481811
      2          8           0       -0.660413    1.231595    0.401914
      3          8           0        1.408420   -0.087327    0.395133
      4          8           0       -0.818093   -1.249219    0.166040
 ---------------------------------------------------------------------
                    Distance matrix (angstroms):
                    1          2          3          4
     1  S    0.000000
     2  O    1.629389   0.000000
     3  O    1.635449   2.453501   0.000000
     4  O    1.685843   2.496986   2.521871   0.000000
 Symmetry turned off by external request.
 Stoichiometry    O3S
 Framework group  C1[X(O3S)]
 Deg. of freedom     6
 Full point group                 C1      NOp   1
 Rotational constants (GHZ):           8.3391140           7.9223631           5.0917008
 Standard basis: 6-31G(d) (6D, 7F)
    64 basis functions,   136 primitive gaussians,    64 cartesian basis functions
    20 alpha electrons       20 beta electrons
       nuclear repulsion energy       163.9620879399 Hartrees.
 NAtoms=    4 NActive=    4 NUniq=    4 SFac= 1.00D+00 NAtFMM=   60 NAOKFM=F Big=F
 Integral buffers will be    131072 words long.
 Raffenetti 2 integral format.
 Two-electron integral symmetry is turned off.
 One-electron integrals computed using PRISM.
 NBasis=    64 RedAO= T EigKep=  6.18D-03  NBF=    64
 NBsUse=    64 1.00D-06 EigRej= -1.00D+00 NBFU=    64
 Keep R1 ints in memory in canonical form, NReq=9277262.
 Requested convergence on RMS density matrix=1.00D-08 within 128 cycles.
 Requested convergence on MAX density matrix=1.00D-06.
 Requested convergence on             energy=1.00D-06.
 No special actions if energy rises.
 SCF Done:  E(RB3LYP) =  -623.568395314     A.U. after    1 cycles
            NFock=  1  Conv=0.20D+01     -V/T= 2.0061
 Calling FoFJK, ICntrl=      2127 FMM=F ISym2X=0 I1Cent= 0 IOpClX= 0 NMat=1 NMatS=1 NMatT=0.
 -------------------------------------------------------------------
 Center     Atomic                   Forces (Hartrees/Bohr)
 Number     Number              X              Y              Z
 -------------------------------------------------------------------
      1       16          -0.030448804   -0.046333992    0.229021638
      2        8           0.008467937   -0.002336301   -0.075271903
      3        8          -0.011015026    0.003969749   -0.076723413
      4        8           0.032995892    0.044700544   -0.077026322
 -------------------------------------------------------------------
 Cartesian Forces:  Max     0.229021638 RMS     0.079745113
 TRJ-TRJ-TRJ-TRJ-TRJ-TRJ-TRJ-TRJ-TRJ-TRJ-TRJ-TRJ-TRJ-TRJ-TRJ-TRJ-TRJ-TRJ

 ADMP step      8
 Frobenius norm of [F,P] =     4.293623D-02
 Current gradient on entry to l121
 I=    1 X=   3.044880364978D-02 Y=   4.633399218931D-02 Z=  -2.290216379243D-01
 I=    2 X=  -8.467937065783D-03 Y=   2.336301084105D-03 Z=   7.527190270810D-02
 I=    3 X=   1.101502571846D-02 Y=  -3.969749390494D-03 Z=   7.672341307851D-02
 I=    4 X=  -3.299589230236D-02 Y=  -4.470054388295D-02 Z=   7.702632213755D-02

 Summary information for step      8
 Time (fs)     0.800000
 EKinC      =      0.0997579; EKinPA =      0.0015335; EKinPB =      0.0015335
 EKin       =      0.1028250; EPot   =   -623.5683953; ETot   =   -623.4655703
 ETot-EKinP =   -623.4686374
 Adiabaticity Index =    1.1886D-03
 Integrand for the Velocity-Velocity Auto-Correlation  Function =   1.864351704990D-01
 Angular momentum
   JX = -0.4671879136D-14  JY = -0.1312325528D-13  JZ = -0.2103602624D-13
 Jtot =  0.2523015426D-13 H-BAR;  J (Quantum Number) =  0.0000000000D+00
 Total energy  -6.234655703D+02  Delta-E  -3.885034D-06 A.U.
 Total angular momentum   2.523015D-14  Delta-A  -6.683747D-15 h-bar
 Tr(PA)-NA = -1.066D-14
 Tr(PA**2-PA) =  8.024D-11
 Tr[(PA**2-PA)**2] =  6.446D-13
 Cartesian coordinates:
 I=    1 X=   6.625825927451D-02 Y=   9.921898035488D-02 Z=  -9.104904510171D-01
 I=    2 X=  -1.247998941775D+00 Y=   2.327377506047D+00 Z=   7.595075633865D-01
 I=    3 X=   2.661527813733D+00 Y=  -1.650240173515D-01 Z=   7.466923343142D-01
 I=    4 X=  -1.545971830895D+00 Y=  -2.360681296954D+00 Z=   3.137701820604D-01
 MW Cartesian velocity:
 I=    1 X=   8.376593154234D+13 Y=   7.832435637189D+13 Z=   9.266796433170D+13
 I=    2 X=   1.769213236995D+14 Y=  -1.602105522460D+14 Z=  -6.236488407478D+13
 I=    3 X=  -1.004761589470D+14 Y=   1.828491944174D+14 Z=  -7.184121522614D+13
 I=    4 X=  -1.948751973954D+14 Y=  -1.333752615949D+14 Z=   3.190185806193D+12
 TRJ-TRJ-TRJ-TRJ-TRJ-TRJ-TRJ-TRJ-TRJ-TRJ-TRJ-TRJ-TRJ-TRJ-TRJ-TRJ-TRJ-TRJ
                          Input orientation:                          
 ---------------------------------------------------------------------
 Center     Atomic      Atomic             Coordinates (Angstroms)
 Number     Number       Type             X           Y           Z
 ---------------------------------------------------------------------
      1         16           0        0.035844    0.053234   -0.480926
      2          8           0       -0.658070    1.229475    0.401077
      3          8           0        1.407089   -0.084907    0.394170
      4          8           0       -0.820666   -1.250977    0.166070
 ---------------------------------------------------------------------
                    Distance matrix (angstroms):
                    1          2          3          4
     1  S    0.000000
     2  O    1.625727   0.000000
     3  O    1.632540   2.447964   0.000000
     4  O    1.689135   2.496859   2.524805   0.000000
 Symmetry turned off by external request.
 Stoichiometry    O3S
 Framework group  C1[X(O3S)]
 Deg. of freedom     6
 Full point group                 C1      NOp   1
 Rotational constants (GHZ):           8.3766190           7.9071159           5.0951192
 Standard basis: 6-31G(d) (6D, 7F)
    64 basis functions,   136 primitive gaussians,    64 cartesian basis functions
    20 alpha electrons       20 beta electrons
       nuclear repulsion energy       164.0675190062 Hartrees.
 NAtoms=    4 NActive=    4 NUniq=    4 SFac= 1.00D+00 NAtFMM=   60 NAOKFM=F Big=F
 Integral buffers will be    131072 words long.
 Raffenetti 2 integral format.
 Two-electron integral symmetry is turned off.
 One-electron integrals computed using PRISM.
 NBasis=    64 RedAO= T EigKep=  6.18D-03  NBF=    64
 NBsUse=    64 1.00D-06 EigRej= -1.00D+00 NBFU=    64
 Keep R1 ints in memory in canonical form, NReq=9277262.
 Requested convergence on RMS density matrix=1.00D-08 within 128 cycles.
 Requested convergence on MAX density matrix=1.00D-06.
 Requested convergence on             energy=1.00D-06.
 No special actions if energy rises.
 SCF Done:  E(RB3LYP) =  -623.568951952     A.U. after    1 cycles
            NFock=  1  Conv=0.20D+01     -V/T= 2.0061
 Calling FoFJK, ICntrl=      2127 FMM=F ISym2X=0 I1Cent= 0 IOpClX= 0 NMat=1 NMatS=1 NMatT=0.
 -------------------------------------------------------------------
 Center     Atomic                   Forces (Hartrees/Bohr)
 Number     Number              X              Y              Z
 -------------------------------------------------------------------
      1       16          -0.025374495   -0.039289441    0.233358340
      2        8           0.011143909   -0.007144016   -0.077656213
      3        8          -0.014761334    0.005774613   -0.079352498
      4        8           0.028991921    0.040658845   -0.076349629
 -------------------------------------------------------------------
 Cartesian Forces:  Max     0.233358340 RMS     0.080477922
 TRJ-TRJ-TRJ-TRJ-TRJ-TRJ-TRJ-TRJ-TRJ-TRJ-TRJ-TRJ-TRJ-TRJ-TRJ-TRJ-TRJ-TRJ

 ADMP step      9
 Frobenius norm of [F,P] =     4.594265D-02
 Current gradient on entry to l121
 I=    1 X=   2.537449531935D-02 Y=   3.928944124843D-02 Z=  -2.333583397004D-01
 I=    2 X=  -1.114390885992D-02 Y=   7.144016301991D-03 Z=   7.765621263751D-02
 I=    3 X=   1.476133429165D-02 Y=  -5.774612622943D-03 Z=   7.935249807129D-02
 I=    4 X=  -2.899192075104D-02 Y=  -4.065884492746D-02 Z=   7.634962899165D-02

 Summary information for step      9
 Time (fs)     0.900000
 EKinC      =      0.1001242; EKinPA =      0.0016268; EKinPB =      0.0016268
 EKin       =      0.1033777; EPot   =   -623.5689520; ETot   =   -623.4655742
 ETot-EKinP =   -623.4688278
 Adiabaticity Index =    8.1043D-04
 Integrand for the Velocity-Velocity Auto-Correlation  Function =   1.865521435768D-01
 Angular momentum
   JX = -0.1137836091D-14  JY = -0.1229013128D-13  JZ = -0.4044773265D-13
 Jtot =  0.4228901836D-13 H-BAR;  J (Quantum Number) =  0.0000000000D+00
 Total energy  -6.234655742D+02  Delta-E  -3.894751D-06 A.U.
 Total angular momentum   4.228902D-14  Delta-A   1.705886D-14 h-bar
 Tr(PA)-NA =  0.000D+00
 Tr(PA**2-PA) =  8.369D-11
 Tr[(PA**2-PA)**2] =  6.716D-13
 Cartesian coordinates:
 I=    1 X=   6.773538329833D-02 Y=   1.005975779264D-01 Z=  -9.088179691518D-01
 I=    2 X=  -1.243572841173D+00 Y=   2.323370752759D+00 Z=   7.579266034385D-01
 I=    3 X=   2.659012139250D+00 Y=  -1.604511064663D-01 Z=   7.448742119839D-01
 I=    4 X=  -1.550834865165D+00 Y=  -2.364003119181D+00 Z=   3.138261573899D-01
 MW Cartesian velocity:
 I=    1 X=   8.331899370372D+13 Y=   7.763331643740D+13 Z=   9.650468042072D+13
 I=    2 X=   1.771438091152D+14 Y=  -1.603326037863D+14 Z=  -6.412625342699D+13
 I=    3 X=  -1.007886462254D+14 Y=   1.829477647097D+14 Z=  -7.362144749418D+13
 I=    4 X=  -1.941533054332D+14 Y=  -1.323747735795D+14 Z=   1.307357669647D+12
 TRJ-TRJ-TRJ-TRJ-TRJ-TRJ-TRJ-TRJ-TRJ-TRJ-TRJ-TRJ-TRJ-TRJ-TRJ-TRJ-TRJ-TRJ
                          Input orientation:                          
 ---------------------------------------------------------------------
 Center     Atomic      Atomic             Coordinates (Angstroms)
 Number     Number       Type             X           Y           Z
 ---------------------------------------------------------------------
      1         16           0        0.036622    0.053958   -0.480004
      2          8           0       -0.655725    1.227352    0.400217
      3          8           0        1.405753   -0.082486    0.393184
      4          8           0       -0.823231   -1.252722    0.166075
 ---------------------------------------------------------------------
                    Distance matrix (angstroms):
                    1          2          3          4
     1  S    0.000000
     2  O    1.622032   0.000000
     3  O    1.629600   2.442420   0.000000
     4  O    1.692388   2.496728   2.527726   0.000000
 Symmetry turned off by external request.
 Stoichiometry    O3S
 Framework group  C1[X(O3S)]
 Deg. of freedom     6
 Full point group                 C1      NOp   1
 Rotational constants (GHZ):           8.4147091           7.8921933           5.0985414
 Standard basis: 6-31G(d) (6D, 7F)
    64 basis functions,   136 primitive gaussians,    64 cartesian basis functions
    20 alpha electrons       20 beta electrons
       nuclear repulsion energy       164.1768664730 Hartrees.
 NAtoms=    4 NActive=    4 NUniq=    4 SFac= 1.00D+00 NAtFMM=   60 NAOKFM=F Big=F
 Integral buffers will be    131072 words long.
 Raffenetti 2 integral format.
 Two-electron integral symmetry is turned off.
 One-electron integrals computed using PRISM.
 NBasis=    64 RedAO= T EigKep=  6.17D-03  NBF=    64
 NBsUse=    64 1.00D-06 EigRej= -1.00D+00 NBFU=    64
 Keep R1 ints in memory in canonical form, NReq=9277262.
 Requested convergence on RMS density matrix=1.00D-08 within 128 cycles.
 Requested convergence on MAX density matrix=1.00D-06.
 Requested convergence on             energy=1.00D-06.
 No special actions if energy rises.
 SCF Done:  E(RB3LYP) =  -623.569511210     A.U. after    1 cycles
            NFock=  1  Conv=0.20D+01     -V/T= 2.0060
 Calling FoFJK, ICntrl=      2127 FMM=F ISym2X=0 I1Cent= 0 IOpClX= 0 NMat=1 NMatS=1 NMatT=0.
 -------------------------------------------------------------------
 Center     Atomic                   Forces (Hartrees/Bohr)
 Number     Number              X              Y              Z
 -------------------------------------------------------------------
      1       16          -0.021426971   -0.033789127    0.236153547
      2        8           0.012184174   -0.010124478   -0.079191221
      3        8          -0.017387708    0.006009787   -0.080968665
      4        8           0.026630505    0.037903818   -0.075993661
 -------------------------------------------------------------------
 Cartesian Forces:  Max     0.236153547 RMS     0.080987047
 TRJ-TRJ-TRJ-TRJ-TRJ-TRJ-TRJ-TRJ-TRJ-TRJ-TRJ-TRJ-TRJ-TRJ-TRJ-TRJ-TRJ-TRJ

 ADMP step     10
 Frobenius norm of [F,P] =     4.336309D-02
 Current gradient on entry to l121
 I=    1 X=   2.142697092241D-02 Y=   3.378912710853D-02 Z=  -2.361535474248D-01
 I=    2 X=  -1.218417389454D-02 Y=   1.012447771685D-02 Z=   7.919122096432D-02
 I=    3 X=   1.738770777983D-02 Y=  -6.009787080079D-03 Z=   8.096866498939D-02
 I=    4 X=  -2.663050480763D-02 Y=  -3.790381774534D-02 Z=   7.599366147104D-02

 Summary information for step     10
 Time (fs)     1.000000
 EKinC      =      0.1006120; EKinPA =      0.0016612; EKinPB =      0.0016612
 EKin       =      0.1039345; EPot   =   -623.5695112; ETot   =   -623.4655768
 ETot-EKinP =   -623.4688992
 Adiabaticity Index =    4.4844D-04
 Integrand for the Velocity-Velocity Auto-Correlation  Function =   1.867554680241D-01
 Angular momentum
   JX =  0.1470392904D-13  JY = -0.1016872147D-13  JZ = -0.2966683737D-13
 Jtot =  0.3463711398D-13 H-BAR;  J (Quantum Number) =  0.0000000000D+00
 Total energy  -6.234655768D+02  Delta-E  -2.511218D-06 A.U.
 Total angular momentum   3.463711D-14  Delta-A  -7.651904D-15 h-bar
 Tr(PA)-NA =  0.000D+00
 Tr(PA**2-PA) =  7.721D-11
 Tr[(PA**2-PA)**2] =  6.191D-13
 Cartesian coordinates:
 I=    1 X=   6.920531685917D-02 Y=   1.019649311142D-01 Z=  -9.070770054419D-01
 I=    2 X=  -1.239140343421D+00 Y=   2.319359601571D+00 Z=   7.563007410544D-01
 I=    3 X=   2.656487580376D+00 Y=  -1.558751750893D-01 Z=   7.430106768132D-01
 I=    4 X=  -1.555681039253D+00 Y=  -2.367301087717D+00 Z=   3.138355603344D-01
 MW Cartesian velocity:
 I=    1 X=   8.294278417288D+13 Y=   7.703975142588D+13 Z=   1.003995495638D+14
 I=    2 X=   1.774135141742D+14 Y=  -1.605411540770D+14 Z=  -6.594625582872D+13
 I=    3 X=  -1.011732246074D+14 Y=   1.830733749202D+14 Z=  -7.546388796989D+13
 I=    4 X=  -1.935065391772D+14 Y=  -1.314526388243D+14 Z=  -5.368472183669D+11
 TRJ-TRJ-TRJ-TRJ-TRJ-TRJ-TRJ-TRJ-TRJ-TRJ-TRJ-TRJ-TRJ-TRJ-TRJ-TRJ-TRJ-TRJ
                          Input orientation:                          
 ---------------------------------------------------------------------
 Center     Atomic      Atomic             Coordinates (Angstroms)
 Number     Number       Type             X           Y           Z
 ---------------------------------------------------------------------
      1         16           0        0.037396    0.054676   -0.479047
      2          8           0       -0.653376    1.225226    0.399332
      3          8           0        1.404411   -0.080062    0.392173
      4          8           0       -0.825787   -1.254455    0.166055
 ---------------------------------------------------------------------
                    Distance matrix (angstroms):
                    1          2          3          4
     1  S    0.000000
     2  O    1.618303   0.000000
     3  O    1.626625   2.436866   0.000000
     4  O    1.695602   2.496591   2.530635   0.000000
 Symmetry turned off by external request.
 Stoichiometry    O3S
 Framework group  C1[X(O3S)]
 Deg. of freedom     6
 Full point group                 C1      NOp   1
 Rotational constants (GHZ):           8.4534040           7.8775901           5.1019690
 Standard basis: 6-31G(d) (6D, 7F)
    64 basis functions,   136 primitive gaussians,    64 cartesian basis functions
    20 alpha electrons       20 beta electrons
       nuclear repulsion energy       164.2901866915 Hartrees.
 NAtoms=    4 NActive=    4 NUniq=    4 SFac= 1.00D+00 NAtFMM=   60 NAOKFM=F Big=F
 Integral buffers will be    131072 words long.
 Raffenetti 2 integral format.
 Two-electron integral symmetry is turned off.
 One-electron integrals computed using PRISM.
 NBasis=    64 RedAO= T EigKep=  6.17D-03  NBF=    64
 NBsUse=    64 1.00D-06 EigRej= -1.00D+00 NBFU=    64
 Keep R1 ints in memory in canonical form, NReq=9277262.
 Requested convergence on RMS density matrix=1.00D-08 within 128 cycles.
 Requested convergence on MAX density matrix=1.00D-06.
 Requested convergence on             energy=1.00D-06.
 No special actions if energy rises.
 SCF Done:  E(RB3LYP) =  -623.570070728     A.U. after    1 cycles
            NFock=  1  Conv=0.20D+01     -V/T= 2.0060
 Calling FoFJK, ICntrl=      2127 FMM=F ISym2X=0 I1Cent= 0 IOpClX= 0 NMat=1 NMatS=1 NMatT=0.
 -------------------------------------------------------------------
 Center     Atomic                   Forces (Hartrees/Bohr)
 Number     Number              X              Y              Z
 -------------------------------------------------------------------
      1       16          -0.018738986   -0.029919235    0.237066648
      2        8           0.011731667   -0.011197004   -0.079767731
      3        8          -0.018651035    0.004906404   -0.081464727
      4        8           0.025658354    0.036209836   -0.075834190
 -------------------------------------------------------------------
 Cartesian Forces:  Max     0.237066648 RMS     0.081035777
 TRJ-TRJ-TRJ-TRJ-TRJ-TRJ-TRJ-TRJ-TRJ-TRJ-TRJ-TRJ-TRJ-TRJ-TRJ-TRJ-TRJ-TRJ

 ADMP step     11
 Frobenius norm of [F,P] =     3.740061D-02
 Current gradient on entry to l121
 I=    1 X=   1.873898605526D-02 Y=   2.991923487830D-02 Z=  -2.370666483583D-01
 I=    2 X=  -1.173166719092D-02 Y=   1.119700429393D-02 Z=   7.976773076019D-02
 I=    3 X=   1.865103490054D-02 Y=  -4.906403528445D-03 Z=   8.146472724226D-02
 I=    4 X=  -2.565835376488D-02 Y=  -3.620983564379D-02 Z=   7.583419035588D-02

 Summary information for step     11
 Time (fs)     1.100000
 EKinC      =      0.1011762; EKinPA =      0.0016587; EKinPB =      0.0016587
 EKin       =      0.1044937; EPot   =   -623.5700707; ETot   =   -623.4655770
 ETot-EKinP =   -623.4688945
 Adiabaticity Index =    1.7599D-04
 Integrand for the Velocity-Velocity Auto-Correlation  Function =   1.870030373127D-01
 Angular momentum
   JX =  0.7498476546D-15  JY = -0.7082009308D-14  JZ = -0.3005619742D-13
 Jtot =  0.3088838181D-13 H-BAR;  J (Quantum Number) =  0.0000000000D+00
 Total energy  -6.234655770D+02  Delta-E  -2.932661D-07 A.U.
 Total angular momentum   3.088838D-14  Delta-A  -3.748732D-15 h-bar
 Tr(PA)-NA = -1.421D-14
 Tr(PA**2-PA) =  6.272D-11
 Tr[(PA**2-PA)**2] =  5.047D-13
 Cartesian coordinates:
 I=    1 X=   7.066913405939D-02 Y=   1.033225338298D-01 Z=  -9.052667590269D-01
 I=    2 X=  -1.234700755423D+00 Y=   2.315342419111D+00 Z=   7.546287665214D-01
 I=    3 X=   2.653952673918D+00 Y=  -1.512959826953D-01 Z=   7.411004178158D-01
 I=    4 X=  -1.560511730069D+00 Y=  -2.370576795878D+00 Z=   3.137993107622D-01
 MW Cartesian velocity:
 I=    1 X=   8.261649408848D+13 Y=   7.651717715860D+13 Z=   1.043240536016D+14
 I=    2 X=   1.776929141520D+14 Y=  -1.607930684763D+14 Z=  -6.780285509430D+13
 I=    3 X=  -1.016000856101D+14 Y=   1.831937580047D+14 Z=  -7.734683280091D+13
 I=    4 X=  -1.928977623806D+14 Y=  -1.305822810392D+14 Z=  -2.345849323732D+12
 TRJ-TRJ-TRJ-TRJ-TRJ-TRJ-TRJ-TRJ-TRJ-TRJ-TRJ-TRJ-TRJ-TRJ-TRJ-TRJ-TRJ-TRJ
                          Input orientation:                          
 ---------------------------------------------------------------------
 Center     Atomic      Atomic             Coordinates (Angstroms)
 Number     Number       Type             X           Y           Z
 ---------------------------------------------------------------------
      1         16           0        0.038168    0.055390   -0.478052
      2          8           0       -0.651023    1.223097    0.398423
      3          8           0        1.403064   -0.077638    0.391137
      4          8           0       -0.828336   -1.256177    0.166013
 ---------------------------------------------------------------------
                    Distance matrix (angstroms):
                    1          2          3          4
     1  S    0.000000
     2  O    1.614538   0.000000
     3  O    1.623615   2.431303   0.000000
     4  O    1.698781   2.496449   2.533531   0.000000
 Symmetry turned off by external request.
 Stoichiometry    O3S
 Framework group  C1[X(O3S)]
 Deg. of freedom     6
 Full point group                 C1      NOp   1
 Rotational constants (GHZ):           8.4927147           7.8633019           5.1054023
 Standard basis: 6-31G(d) (6D, 7F)
    64 basis functions,   136 primitive gaussians,    64 cartesian basis functions
    20 alpha electrons       20 beta electrons
       nuclear repulsion energy       164.4074980655 Hartrees.
 NAtoms=    4 NActive=    4 NUniq=    4 SFac= 1.00D+00 NAtFMM=   60 NAOKFM=F Big=F
 Integral buffers will be    131072 words long.
 Raffenetti 2 integral format.
 Two-electron integral symmetry is turned off.
 One-electron integrals computed using PRISM.
 NBasis=    64 RedAO= T EigKep=  6.17D-03  NBF=    64
 NBsUse=    64 1.00D-06 EigRej= -1.00D+00 NBFU=    64
 Keep R1 ints in memory in canonical form, NReq=9277262.
 Requested convergence on RMS density matrix=1.00D-08 within 128 cycles.
 Requested convergence on MAX density matrix=1.00D-06.
 Requested convergence on             energy=1.00D-06.
 No special actions if energy rises.
 SCF Done:  E(RB3LYP) =  -623.570643408     A.U. after    1 cycles
            NFock=  1  Conv=0.20D+01     -V/T= 2.0060
 Calling FoFJK, ICntrl=      2127 FMM=F ISym2X=0 I1Cent= 0 IOpClX= 0 NMat=1 NMatS=1 NMatT=0.
 -------------------------------------------------------------------
 Center     Atomic                   Forces (Hartrees/Bohr)
 Number     Number              X              Y              Z
 -------------------------------------------------------------------
      1       16          -0.017134344   -0.027362359    0.236226489
      2        8           0.010267541   -0.010749842   -0.079505272
      3        8          -0.018643420    0.002995753   -0.081004332
      4        8           0.025510223    0.035116448   -0.075716885
 -------------------------------------------------------------------
 Cartesian Forces:  Max     0.236226489 RMS     0.080582538
 TRJ-TRJ-TRJ-TRJ-TRJ-TRJ-TRJ-TRJ-TRJ-TRJ-TRJ-TRJ-TRJ-TRJ-TRJ-TRJ-TRJ-TRJ

 ADMP step     12
 Frobenius norm of [F,P] =     3.374875D-02
 Current gradient on entry to l121
 I=    1 X=   1.713434418770D-02 Y=   2.736235898034D-02 Z=  -2.362264890334D-01
 I=    2 X=  -1.026754115741D-02 Y=   1.074984189577D-02 Z=   7.950527199455D-02
 I=    3 X=   1.864342011173D-02 Y=  -2.995753214053D-03 Z=   8.100433208590D-02
 I=    4 X=  -2.551022314198D-02 Y=  -3.511644766207D-02 Z=   7.571688495281D-02

 Summary information for step     12
 Time (fs)     1.200000
 EKinC      =      0.1017776; EKinPA =      0.0016447; EKinPB =      0.0016447
 EKin       =      0.1050669; EPot   =   -623.5706434; ETot   =   -623.4655765
 ETot-EKinP =   -623.4688658
 Adiabaticity Index =    6.8852D-05
 Integrand for the Velocity-Velocity Auto-Correlation  Function =   1.872592715535D-01
 Angular momentum
   JX = -0.1017569419D-14  JY = -0.2347195576D-13  JZ = -0.2163392542D-13
 Jtot =  0.3193735875D-13 H-BAR;  J (Quantum Number) =  0.0000000000D+00
 Total energy  -6.234655765D+02  Delta-E   5.759148D-07 A.U.
 Total angular momentum   3.193736D-14  Delta-A   1.048977D-15 h-bar
 Tr(PA)-NA = -1.776D-14
 Tr(PA**2-PA) =  4.500D-11
 Tr[(PA**2-PA)**2] =  3.650D-13
 Cartesian coordinates:
 I=    1 X=   7.212752648627D-02 Y=   1.046714031595D-01 Z=  -9.033869825580D-01
 I=    2 X=  -1.230254285451D+00 Y=   2.311318670201D+00 Z=   7.529100594182D-01
 I=    3 X=   2.651406768602D+00 Y=  -1.467140312073D-01 Z=   7.391427204383D-01
 I=    4 X=  -1.565327460479D+00 Y=  -2.373831239607D+00 Z=   3.137182492240D-01
 MW Cartesian velocity:
 I=    1 X=   8.232030487910D+13 Y=   7.604144215828D+13 Z=   1.082480098186D+14
 I=    2 X=   1.779515748015D+14 Y=  -1.610489903203D+14 Z=  -6.967387455779D+13
 I=    3 X=  -1.020380730466D+14 Y=   1.832851031975D+14 Z=  -7.924723417501D+13
 I=    4 X=  -1.922996770710D+14 Y=  -1.297451002567D+14 Z=  -4.122200167455D+12
 TRJ-TRJ-TRJ-TRJ-TRJ-TRJ-TRJ-TRJ-TRJ-TRJ-TRJ-TRJ-TRJ-TRJ-TRJ-TRJ-TRJ-TRJ
                          Input orientation:                          
 ---------------------------------------------------------------------
 Center     Atomic      Atomic             Coordinates (Angstroms)
 Number     Number       Type             X           Y           Z
 ---------------------------------------------------------------------
      1         16           0        0.038937    0.056099   -0.477020
      2          8           0       -0.648666    1.220965    0.397489
      3          8           0        1.401711   -0.075212    0.390076
      4          8           0       -0.830876   -1.257889    0.165946
 ---------------------------------------------------------------------
                    Distance matrix (angstroms):
                    1          2          3          4
     1  S    0.000000
     2  O    1.610738   0.000000
     3  O    1.620571   2.425732   0.000000
     4  O    1.701924   2.496302   2.536415   0.000000
 Symmetry turned off by external request.
 Stoichiometry    O3S
 Framework group  C1[X(O3S)]
 Deg. of freedom     6
 Full point group                 C1      NOp   1
 Rotational constants (GHZ):           8.5326449           7.8493239           5.1088400
 Standard basis: 6-31G(d) (6D, 7F)
    64 basis functions,   136 primitive gaussians,    64 cartesian basis functions
    20 alpha electrons       20 beta electrons
       nuclear repulsion energy       164.5287815454 Hartrees.
 NAtoms=    4 NActive=    4 NUniq=    4 SFac= 1.00D+00 NAtFMM=   60 NAOKFM=F Big=F
 Integral buffers will be    131072 words long.
 Raffenetti 2 integral format.
 Two-electron integral symmetry is turned off.
 One-electron integrals computed using PRISM.
 NBasis=    64 RedAO= T EigKep=  6.17D-03  NBF=    64
 NBsUse=    64 1.00D-06 EigRej= -1.00D+00 NBFU=    64
 Keep R1 ints in memory in canonical form, NReq=9277262.
 Requested convergence on RMS density matrix=1.00D-08 within 128 cycles.
 Requested convergence on MAX density matrix=1.00D-06.
 Requested convergence on             energy=1.00D-06.
 No special actions if energy rises.
 SCF Done:  E(RB3LYP) =  -623.571238438     A.U. after    1 cycles
            NFock=  1  Conv=0.20D+01     -V/T= 2.0060
 Calling FoFJK, ICntrl=      2127 FMM=F ISym2X=0 I1Cent= 0 IOpClX= 0 NMat=1 NMatS=1 NMatT=0.
 -------------------------------------------------------------------
 Center     Atomic                   Forces (Hartrees/Bohr)
 Number     Number              X              Y              Z
 -------------------------------------------------------------------
      1       16          -0.016302893   -0.025679254    0.234113625
      2        8           0.008375440   -0.009401478   -0.078665622
      3        8          -0.017686107    0.000881988   -0.079926210
      4        8           0.025613560    0.034198743   -0.075521793
 -------------------------------------------------------------------
 Cartesian Forces:  Max     0.234113625 RMS     0.079745501
 TRJ-TRJ-TRJ-TRJ-TRJ-TRJ-TRJ-TRJ-TRJ-TRJ-TRJ-TRJ-TRJ-TRJ-TRJ-TRJ-TRJ-TRJ

 ADMP step     13
 Frobenius norm of [F,P] =     3.784577D-02
 Current gradient on entry to l121
 I=    1 X=   1.630289255327D-02 Y=   2.567925403674D-02 Z=  -2.341136245014D-01
 I=    2 X=  -8.375439926910D-03 Y=   9.401477596981D-03 Z=   7.866562212184D-02
 I=    3 X=   1.768610696332D-02 Y=  -8.819884958926D-04 Z=   7.992620964062D-02
 I=    4 X=  -2.561355958969D-02 Y=  -3.419874313783D-02 Z=   7.552179273901D-02

 Summary information for step     13
 Time (fs)     1.300000
 EKinC      =      0.1023901; EKinPA =      0.0016361; EKinPB =      0.0016361
 EKin       =      0.1056624; EPot   =   -623.5712384; ETot   =   -623.4655761
 ETot-EKinP =   -623.4688483
 Adiabaticity Index =    1.0592D-04
 Integrand for the Velocity-Velocity Auto-Correlation  Function =   1.875015475551D-01
 Angular momentum
   JX = -0.2327179252D-13  JY = -0.1634701893D-13  JZ = -0.3184350617D-13
 Jtot =  0.4269438184D-13 H-BAR;  J (Quantum Number) =  0.0000000000D+00
 Total energy  -6.234655761D+02  Delta-E   4.083969D-07 A.U.
[...]
 Tr(PA**2-PA) =  3.083D-11
 Tr[(PA**2-PA)**2] =  2.493D-13
 Cartesian coordinates:
 I=    1 X=   1.222240949400D-01 Y=   1.478640504482D-01 Z=  -7.890814894486D-01
 I=    2 X=  -1.068304766341D+00 Y=   2.165341158668D+00 Z=   6.597580545161D-01
 I=    3 X=   2.555944515295D+00 Y=   1.981846136502D-02 Z=   6.355304581523D-01
 I=    4 X=  -1.731952246212D+00 Y=  -2.480723562947D+00 Z=   2.819984316213D-01
 MW Cartesian velocity:
 I=    1 X=   7.104467992643D+13 Y=   5.322740436055D+13 Z=   2.328993805154D+14
 I=    2 X=   1.628536302727D+14 Y=  -1.450860748760D+14 Z=  -1.261909829539D+14
 I=    3 X=  -9.631515921831D+13 Y=   1.717782140863D+14 Z=  -1.415398405421D+14
 I=    4 X=  -1.669829310857D+14 Y=  -1.019461609808D+14 Z=  -6.154721029536D+13
 TRJ-TRJ-TRJ-TRJ-TRJ-TRJ-TRJ-TRJ-TRJ-TRJ-TRJ-TRJ-TRJ-TRJ-TRJ-TRJ-TRJ-TRJ
                          Input orientation:                          
 ---------------------------------------------------------------------
 Center     Atomic      Atomic             Coordinates (Angstroms)
 Number     Number       Type             X           Y           Z
 ---------------------------------------------------------------------
      1         16           0        0.065341    0.078740   -0.415373
      2          8           0       -0.563176    1.143938    0.347453
      3          8           0        1.351280    0.012756    0.334427
      4          8           0       -0.918714   -1.314086    0.148404
 ---------------------------------------------------------------------
                    Distance matrix (angstroms):
                    1          2          3          4
     1  S    0.000000
     2  O    1.453130   0.000000
     3  O    1.490031   2.223710   0.000000
     4  O    1.796155   2.491568   2.635903   0.000000
 Symmetry turned off by external request.
 Stoichiometry    O3S
 Framework group  C1[X(O3S)]
 Deg. of freedom     6
 Full point group                 C1      NOp   1
 Rotational constants (GHZ):          10.4520736           7.5031493           5.2205852
 Standard basis: 6-31G(d) (6D, 7F)
    64 basis functions,   136 primitive gaussians,    64 cartesian basis functions
    20 alpha electrons       20 beta electrons
       nuclear repulsion energy       171.4538625226 Hartrees.
 NAtoms=    4 NActive=    4 NUniq=    4 SFac= 1.00D+00 NAtFMM=   60 NAOKFM=F Big=F
 Integral buffers will be    131072 words long.
 Raffenetti 2 integral format.
 Two-electron integral symmetry is turned off.
 One-electron integrals computed using PRISM.
 NBasis=    64 RedAO= T EigKep=  6.38D-03  NBF=    64
 NBsUse=    64 1.00D-06 EigRej= -1.00D+00 NBFU=    64
 Keep R1 ints in memory in canonical form, NReq=9277262.
 Requested convergence on RMS density matrix=1.00D-08 within 128 cycles.
 Requested convergence on MAX density matrix=1.00D-06.
 Requested convergence on             energy=1.00D-06.
 No special actions if energy rises.
 SCF Done:  E(RB3LYP) =  -623.589371597     A.U. after    1 cycles
            NFock=  1  Conv=0.20D+01     -V/T= 2.0053
 Calling FoFJK, ICntrl=      2127 FMM=F ISym2X=0 I1Cent= 0 IOpClX= 0 NMat=1 NMatS=1 NMatT=0.
 -------------------------------------------------------------------
 Center     Atomic                   Forces (Hartrees/Bohr)
 Number     Number              X              Y              Z
 -------------------------------------------------------------------
      1       16          -0.024083794   -0.065972244    0.142058427
      2        8          -0.059926604    0.062132266   -0.035637795
      3        8           0.047434673   -0.031974747   -0.050968746
      4        8           0.036575724    0.035814725   -0.055451886
 -------------------------------------------------------------------
 Cartesian Forces:  Max     0.142058427 RMS     0.061508988
 TRJ-TRJ-TRJ-TRJ-TRJ-TRJ-TRJ-TRJ-TRJ-TRJ-TRJ-TRJ-TRJ-TRJ-TRJ-TRJ-TRJ-TRJ

 ADMP step     50
 Frobenius norm of [F,P] =     4.524899D-02
 Current gradient on entry to l121
 I=    1 X=   2.408379371663D-02 Y=   6.597224430865D-02 Z=  -1.420584269331D-01
 I=    2 X=   5.992660350672D-02 Y=  -6.213226555219D-02 Z=   3.563779530396D-02
 I=    3 X=  -4.743467338125D-02 Y=   3.197474665622D-02 Z=   5.096874592599D-02
 I=    4 X=  -3.657572384208D-02 Y=  -3.581472541268D-02 Z=   5.545188570315D-02

 Summary information for step     50
 Time (fs)     5.000000
 EKinC      =      0.1207723; EKinPA =      0.0015101; EKinPB =      0.0015101
 EKin       =      0.1237926; EPot   =   -623.5893716; ETot   =   -623.4655790
 ETot-EKinP =   -623.4685993
 Adiabaticity Index =    1.9908D-04
 Integrand for the Velocity-Velocity Auto-Correlation  Function =   1.796170223184D-01
 Angular momentum
   JX = -0.1297300048D-13  JY =  0.4853927219D-13  JZ = -0.1348372616D-12
 Jtot =  0.1438938734D-12 H-BAR;  J (Quantum Number) =  0.0000000000D+00
 Total energy  -6.234655790D+02  Delta-E  -5.516824D-08 A.U.
 Total angular momentum   1.438939D-13  Delta-A  -3.637273D-14 h-bar
 Tr(PA)-NA =  7.105D-15
 Tr(PA**2-PA) = -8.651D-11
 Tr[(PA**2-PA)**2] =  7.293D-13
 Cartesian coordinates:
 I=    1 X=   1.234773289688D-01 Y=   1.487964405602D-01 Z=  -7.849406937677D-01
 I=    2 X=  -1.064248743866D+00 Y=   2.161730026673D+00 Z=   6.565914127539D-01
 I=    3 X=   2.553548629233D+00 Y=   2.410474678924D-02 Z=   6.319754678421D-01
 I=    4 X=  -1.736117459347D+00 Y=  -2.483262461465D+00 Z=   2.804430694241D-01
 MW Cartesian velocity:
 I=    1 X=   7.066196784385D+13 Y=   5.217510826804D+13 Z=   2.353143624164D+14
 I=    2 X=   1.615190188740D+14 Y=  -1.436924105179D+14 Z=  -1.270567739489D+14
 I=    3 X=  -9.526319034002D+13 Y=   1.710420938967D+14 Z=  -1.427794055251D+14
 I=    4 X=  -1.661592021881D+14 Y=  -1.011159468412D+14 Z=  -6.285620643037D+13


 Final analysis for traj   1
 Traj calculation does not meet the product criterion.


 Analysis of fragment    1

 Instantaneous rotational analysis:
 Q(CM): X=  0.000000000000D+00 Y= -0.555411325290D-16 Z= -0.222164530116D-16
 V(CM): X=  0.138852831322D-01 Y=  0.138852831322D-01 Z= -0.555411325290D-02
 Angular momentum in principle axes
   JX =  0.1958147594D-13  JY = -0.3916295189D-13  JZ =  0.1370703316D-12
 Jtot =  0.1438938734D-12  H-BAR;  J (Quantum Number) =  0.0000000000D+00
 Angular momentum in original axes
   JX = -0.1297300048D-13  JY =  0.4853927219D-13  JZ = -0.1348372616D-12
 Jtot =  0.1438938734D-12  H-BAR;  J (Quantum Number) =  0.0000000000D+00

 Etrn =  0.1643091927D-31 Erot =  0.1726546978D-31 Evib(kin) =  0.1207723449D+00 au
 Epot = -0.6234655790D+03 Etot = -0.6233448066D+03 au

 Trajectory summary for trajectory      1
 Energy/Fock evaluations               51
 Gradient evaluations                  51

 Trajectory summary
   Time (fs)   Kinetic (au)   Potent (au)   Delta E (au)     Delta A (h-bar)
     0.000000     0.1000000  -623.5655613     0.0000000     0.0000000000000000
     0.100000     0.1002965  -623.5658521     0.0000057    -0.0000000000000360
     0.200000     0.1004097  -623.5659537     0.0000173     0.0000000000000104
     0.300000     0.1005348  -623.5660728     0.0000233    -0.0000000000000316
     0.400000     0.1008104  -623.5663529     0.0000188    -0.0000000000000176
     0.500000     0.1012402  -623.5667929     0.0000086    -0.0000000000000301
     0.600000     0.1017502  -623.5673115    -0.0000001    -0.0000000000000388
     0.700000     0.1022827  -623.5678492    -0.0000052    -0.0000000000000185
     0.800000     0.1028250  -623.5683953    -0.0000091    -0.0000000000000252
     0.900000     0.1033777  -623.5689520    -0.0000130    -0.0000000000000082
     1.000000     0.1039345  -623.5695112    -0.0000155    -0.0000000000000158
     1.100000     0.1044937  -623.5700707    -0.0000158    -0.0000000000000196
     1.200000     0.1050669  -623.5706434    -0.0000152    -0.0000000000000185
     1.300000     0.1056624  -623.5712384    -0.0000148    -0.0000000000000078
     1.400000     0.1062736  -623.5718482    -0.0000133    -0.0000000000000106
     1.500000     0.1068977  -623.5724684    -0.0000095    -0.0000000000000232
     1.600000     0.1075525  -623.5731188    -0.0000050    -0.0000000000000259
     1.700000     0.1082567  -623.5738213    -0.0000033    -0.0000000000000231
     1.800000     0.1089918  -623.5745577    -0.0000046    -0.0000000000000172
     1.900000     0.1097037  -623.5752705    -0.0000055    -0.0000000000000209
     2.000000     0.1103558  -623.5759200    -0.0000029     0.0000000000000036
     2.100000     0.1109713  -623.5765313     0.0000013    -0.0000000000000020
     2.200000     0.1116097  -623.5771688     0.0000022    -0.0000000000000211
     2.300000     0.1123011  -623.5778646    -0.0000022    -0.0000000000000029
     2.400000     0.1130152  -623.5785854    -0.0000090    -0.0000000000000060
     2.500000     0.1136992  -623.5792739    -0.0000134    -0.0000000000000043
     2.600000     0.1143352  -623.5799109    -0.0000144    -0.0000000000000147
     2.700000     0.1149504  -623.5805264    -0.0000148     0.0000000000000233
     2.800000     0.1155762  -623.5811545    -0.0000171     0.0000000000000294
     2.900000     0.1162082  -623.5817900    -0.0000206     0.0000000000000337
     3.000000     0.1168115  -623.5823952    -0.0000225     0.0000000000000533
     3.100000     0.1173564  -623.5829390    -0.0000213     0.0000000000000973
     3.200000     0.1178425  -623.5834215    -0.0000177     0.0000000000001144
     3.300000     0.1182932  -623.5838674    -0.0000129     0.0000000000000761
     3.400000     0.1187390  -623.5843080    -0.0000077     0.0000000000000593
     3.500000     0.1192094  -623.5847732    -0.0000025     0.0000000000000967
     3.600000     0.1197280  -623.5852878     0.0000014     0.0000000000000976
     3.700000     0.1202954  -623.5858542     0.0000025     0.0000000000001067
     3.800000     0.1208749  -623.5864350     0.0000012     0.0000000000001048
     3.900000     0.1214045  -623.5869654     0.0000003     0.0000000000001163
     4.000000     0.1218392  -623.5873984     0.0000021     0.0000000000001067
     4.100000     0.1221833  -623.5877394     0.0000052     0.0000000000001259
     4.200000     0.1224757  -623.5880306     0.0000064     0.0000000000001266
     4.300000     0.1227453  -623.5883025     0.0000041     0.0000000000001080
     4.400000     0.1229900  -623.5885509     0.0000004     0.0000000000001259
     4.500000     0.1231991  -623.5887626    -0.0000022     0.0000000000001198
     4.600000     0.1233817  -623.5889472    -0.0000042     0.0000000000001269
     4.700000     0.1235551  -623.5891243    -0.0000079     0.0000000000001339
     4.800000     0.1237092  -623.5892839    -0.0000134     0.0000000000001140
     4.900000     0.1238007  -623.5893796    -0.0000177     0.0000000000001298
     5.000000     0.1237926  -623.5893716    -0.0000177     0.0000000000000934
                             Max Error =      0.0000233     0.0000000000001339

 Density conservation (alpha)
    Time (fs)      Electron #     Av. Idempot     RMS Idempot
     0.000000  0.000000000000  0.000000000000  0.000000000000
     0.100000 -0.000000000000 -0.000000000000  0.000000000000
     0.200000  0.000000000000  0.000000000016  0.000000000000
     0.300000 -0.000000000000 -0.000000000004  0.000000000000
     0.400000  0.000000000000 -0.000000000064  0.000000000001
     0.500000  0.000000000000  0.000000000030  0.000000000000
     0.600000  0.000000000000  0.000000000050  0.000000000000
     0.700000  0.000000000000  0.000000000068  0.000000000001
     0.800000 -0.000000000000  0.000000000080  0.000000000001
     0.900000  0.000000000000  0.000000000084  0.000000000001
     1.000000  0.000000000000  0.000000000077  0.000000000001
     1.100000 -0.000000000000  0.000000000063  0.000000000001
     1.200000 -0.000000000000  0.000000000045  0.000000000000
     1.300000 -0.000000000000  0.000000000029  0.000000000000
     1.400000  0.000000000000 -0.000000000086  0.000000000001
     1.500000 -0.000000000000 -0.000000000040  0.000000000000
     1.600000  0.000000000000 -0.000000000016  0.000000000000
     1.700000 -0.000000000000 -0.000000000022  0.000000000000
     1.800000  0.000000000000 -0.000000000068  0.000000000001
     1.900000 -0.000000000000  0.000000000030  0.000000000000
     2.000000  0.000000000000  0.000000000050  0.000000000000
     2.100000 -0.000000000000  0.000000000067  0.000000000001
     2.200000 -0.000000000000  0.000000000074  0.000000000001
     2.300000  0.000000000000  0.000000000067  0.000000000001
     2.400000  0.000000000000  0.000000000048  0.000000000000
     2.500000  0.000000000000 -0.000000000115  0.000000000001
     2.600000  0.000000000000  0.000000000030  0.000000000000
     2.700000  0.000000000000 -0.000000000028  0.000000000000
     2.800000 -0.000000000000 -0.000000000041  0.000000000000
     2.900000  0.000000000000 -0.000000000044  0.000000000000
     3.000000  0.000000000000 -0.000000000036  0.000000000000
     3.100000 -0.000000000000  0.000000000096  0.000000000001
     3.200000 -0.000000000000 -0.000000000064  0.000000000001
     3.300000 -0.000000000000  0.000000000049  0.000000000000
     3.400000  0.000000000000  0.000000000084  0.000000000001
     3.500000  0.000000000000  0.000000000109  0.000000000001
     3.600000  0.000000000000  0.000000000116  0.000000000001
     3.700000 -0.000000000000  0.000000000104  0.000000000001
     3.800000  0.000000000000  0.000000000079  0.000000000001
     3.900000  0.000000000000  0.000000000049  0.000000000000
     4.000000  0.000000000000 -0.000000000116  0.000000000001
     4.100000 -0.000000000000  0.000000000002  0.000000000000
     4.200000  0.000000000000  0.000000000065  0.000000000001
     4.300000  0.000000000000  0.000000000068  0.000000000001
     4.400000 -0.000000000000  0.000000000019  0.000000000000
     4.500000 -0.000000000000 -0.000000000063  0.000000000001
     4.600000  0.000000000000  0.000000000027  0.000000000000
     4.700000 -0.000000000000  0.000000000038  0.000000000000
     4.800000  0.000000000000  0.000000000039  0.000000000000
     4.900000  0.000000000000  0.000000000031  0.000000000000
     5.000000  0.000000000000 -0.000000000087  0.000000000001
 Max Error =   0.000000000000 -0.000000000116  0.000000000001
 TRJ-TRJ-TRJ-TRJ-TRJ-TRJ-TRJ-TRJ-TRJ-TRJ-TRJ-TRJ-TRJ-TRJ-TRJ-TRJ-TRJ-TRJ
                          Input orientation:                          
 ---------------------------------------------------------------------
 Center     Atomic      Atomic             Coordinates (Angstroms)
 Number     Number       Type             X           Y           Z
 ---------------------------------------------------------------------
      1         16           0        0.065341    0.078740   -0.415373
      2          8           0       -0.563176    1.143938    0.347453
      3          8           0        1.351280    0.012756    0.334427
      4          8           0       -0.918714   -1.314086    0.148404
 ---------------------------------------------------------------------
                    Distance matrix (angstroms):
                    1          2          3          4
     1  S    0.000000
     2  O    1.453130   0.000000
     3  O    1.490031   2.223710   0.000000
     4  O    1.796155   2.491568   2.635903   0.000000
 Symmetry turned off by external request.
 Stoichiometry    O3S
 Framework group  C1[X(O3S)]
 Deg. of freedom     6
 Full point group                 C1      NOp   1
 Rotational constants (GHZ):          10.4520736           7.5031493           5.2205852

 **********************************************************************

            Population analysis using the SCF Density.

 **********************************************************************

 Alpha  occ. eigenvalues --  -89.15911 -19.23774 -19.23774 -19.23774  -8.19096
 Alpha  occ. eigenvalues --   -6.15404  -6.15390  -6.15390  -1.10619  -0.99003
 Alpha  occ. eigenvalues --   -0.99003  -0.70575  -0.50138  -0.50138  -0.50100
 Alpha  occ. eigenvalues --   -0.37497  -0.37497  -0.33548  -0.33548  -0.31747
 Alpha virt. eigenvalues --   -0.28304  -0.06484  -0.06484   0.04855   0.23486
 Alpha virt. eigenvalues --    0.29326   0.29326   0.30394   0.55459   0.55459
 Alpha virt. eigenvalues --    0.56939   0.76490   0.76490   0.87485   0.89294
 Alpha virt. eigenvalues --    0.89294   0.93106   0.93106   0.94467   1.00318
 Alpha virt. eigenvalues --    1.04222   1.04223   1.20560   1.20561   1.57598
 Alpha virt. eigenvalues --    1.72555   1.74164   1.76064   1.76064   1.76447
 Alpha virt. eigenvalues --    1.76447   1.82152   1.82152   1.82478   1.93759
 Alpha virt. eigenvalues --    1.93759   1.97765   2.24867   2.49421   2.49421
 Alpha virt. eigenvalues --    3.47403   3.47403   3.81907   3.94674
          Condensed to atoms (all electrons):
               1          2          3          4
     1  S   14.032767   0.355970   0.336357   0.187290
     2  O    0.355970   8.168595  -0.106515  -0.049517
     3  O    0.336357  -0.106515   8.185394  -0.036236
     4  O    0.187290  -0.049517  -0.036236   8.238548
 Mulliken charges:
               1
     1  S    1.087616
     2  O   -0.368532
     3  O   -0.379000
     4  O   -0.340084
 Sum of Mulliken charges =  -0.00000
 Mulliken charges with hydrogens summed into heavy atoms:
               1
     1  S    1.087616
     2  O   -0.368532
     3  O   -0.379000
     4  O   -0.340084
 Electronic spatial extent (au):  <R**2>=            254.1880
 Charge=              0.0000 electrons
 Dipole moment (field-independent basis, Debye):
    X=              0.1746    Y=              0.1528    Z=             -2.3601  Tot=              2.3715
 Quadrupole moment (field-independent basis, Debye-Ang):
   XX=            -31.3922   YY=            -30.9359   ZZ=            -24.2891
   XY=             -0.0020   XZ=             -0.7951   YZ=             -1.2569
 Traceless Quadrupole moment (field-independent basis, Debye-Ang):
   XX=             -2.5198   YY=             -2.0635   ZZ=              4.5833
   XY=             -0.0020   XZ=             -0.7951   YZ=             -1.2569
 Octapole moment (field-independent basis, Debye-Ang**2):
  XXX=             -2.3144  YYY=              0.7401  ZZZ=              0.1097  XYY=              2.6115
  XXY=              0.6291  XXZ=              0.0482  XZZ=             -0.0787  YZZ=             -0.0577
  YYZ=              0.3182  XYZ=              0.7590
 Hexadecapole moment (field-independent basis, Debye-Ang**3):
 XXXX=           -128.5026 YYYY=           -129.0612 ZZZZ=            -37.7477 XXXY=             -9.7101
 XXXZ=             -1.9487 YYYX=             -9.2671 YYYZ=             -5.0311 ZZZX=             -1.6371
 ZZZY=             -3.1586 XXYY=            -42.3208 XXZZ=            -25.2042 YYZZ=            -25.3813
 XXYZ=             -2.0255 YYXZ=             -2.0860 ZZXY=             -2.6964
 N-N= 1.714538625226D+02 E-N=-1.819323708714D+03  KE= 6.202758798027D+02
 Unable to Open any file for archive entry.
 1\1\GINC-SPARTAN-BM197\ADMP\RB3LYP\6-31G(d)\O3S1\AKHALILOV\19-Mar-2025
 \0\\# B3LYP/6-31G(d) ADMP int=ultrafine\\SO3 ADMP thermal decompositio
 n simulation targeting 600K\\0,1\S,0.0653413886,0.0787396854,-0.415372
 7271\O,-0.563176182,1.1439382663,0.3474532125\O,1.3512797416,0.0127556
 827,0.3344270154\O,-0.918713795,-1.3140859033,0.1484040813\\Version=ES
 64L-G16RevC.01\HF=-623.5893716\RMSD=2.000e+00\RMSF=6.151e-02\Dipole=0.
 068694,0.0600988,-0.92855\Quadrupole=-1.8734154,-1.534135,3.4075504,-0
 .001515,-0.5911139,-0.9344397\PG=C01 [X(O3S1)]\\@
 The archive entry for this job was punched.


 A SUCCESSFUL PURSUIT OF SCIENCE MAKES A MAN THE
 BENEFACTOR OF ALL MANKIND OF EVERY AGE.
   --  JOSEPH PRIESTLEY, "EXPERIMENTS AND
 OBSERVATIONS ON DIFFERENT KINDS OF AIR", 1774
 Job cpu time:       0 days  0 hours  4 minutes 15.4 seconds.
 Elapsed time:       0 days  0 hours  1 minutes 17.0 seconds.
 File lengths (MBytes):  RWF=      6 Int=      0 D2E=      0 Chk=      2 Scr=      1
 Normal termination of Gaussian 16 at Wed Mar 19 15:16:26 2025.
