CF2O ADMP thermal decomposition simulation targeting 800K               
ADMP      RB3LYP                                                      6-31G(d)            
Number of atoms                            I                4
Info1-9                                    I   N=           9
          13          13           0           0           8         110
           2          18        -502
Full Title                                 C   N=           5
CF2O ADMP thermal decomposition simulation targeting 800K   
Route                                      C   N=           5
# B3LYP/6-31G(d) ADMP int=ultrafine Temperature=800         
Charge                                     I                0
Multiplicity                               I                1
Number of electrons                        I               32
Number of alpha electrons                  I               16
Number of beta electrons                   I               16
Number of basis functions                  I               60
Number of independent functions            I               60
Number of point charges in /Mol/           I                0
Number of translation vectors              I                0
Atomic numbers                             I   N=           4
           9           6           8           9
Nuclear charges                            R   N=           4
  9.00000000E+00  6.00000000E+00  8.00000000E+00  9.00000000E+00
Current cartesian coordinates              R   N=          12
  2.32891409E+00 -1.10193408E+00  1.07330520E-01  2.21127151E-01  1.62217856E-01
 -1.90619023E-01  8.94837001E-05  2.54869553E+00 -1.33565252E-01 -2.46866042E+00
 -1.14629600E+00  1.25520263E-01
Number of symbols in /Mol/                 I                0
Int Atom Types                             I   N=           4
           0           0           0           0
Force Field                                I                0
Atom Types                                 C   N=           4
                                                
MM charges                                 R   N=           4
  0.00000000E+00  0.00000000E+00  0.00000000E+00  0.00000000E+00
Integer atomic weights                     I   N=           4
          19          12          16          19
Real atomic weights                        R   N=           4
  1.89984032E+01  1.20000000E+01  1.59949146E+01  1.89984032E+01
Atom fragment info                         I   N=           4
           0           0           0           0
Atom residue num                           I   N=           4
           0           0           0           0
Nuclear spins                              I   N=           4
           1           0           0           1
Nuclear ZEff                               R   N=           4
 -6.75000000E+00 -3.60000000E+00 -5.60000000E+00 -6.75000000E+00
Nuclear ZNuc                               R   N=           4
  9.00000000E+00  6.00000000E+00  8.00000000E+00  9.00000000E+00
Nuclear QMom                               R   N=           4
  0.00000000E+00  0.00000000E+00  0.00000000E+00  0.00000000E+00
Nuclear GFac                               R   N=           4
  2.62886700E+00  0.00000000E+00  0.00000000E+00  2.62886700E+00
MicOpt                                     I   N=           4
          -1          -1          -1          -1
Number of residues                         I                0
Number of secondary structures             I                0
Number of contracted shells                I               16
Number of primitive shells                 I               44
Pure/Cartesian d shells                    I                1
Pure/Cartesian f shells                    I                0
Highest angular momentum                   I                2
Largest degree of contraction              I                6
Shell types                                I   N=          16
           0          -1          -1           2           0          -1
          -1           2           0          -1          -1           2
           0          -1          -1           2
Number of primitives per shell             I   N=          16
           6           3           1           1           6           3
           1           1           6           3           1           1
           6           3           1           1
Shell to atom map                          I   N=          16
           1           1           1           1           2           2
           2           2           3           3           3           3
           4           4           4           4
Primitive exponents                        R   N=          44
  7.00171309E+03  1.05136609E+03  2.39285690E+02  6.73974453E+01  2.15199573E+01
  7.40310130E+00  2.08479528E+01  4.80830834E+00  1.34406986E+00  3.58151393E-01
  8.00000000E-01  3.04752488E+03  4.57369518E+02  1.03948685E+02  2.92101553E+01
  9.28666296E+00  3.16392696E+00  7.86827235E+00  1.88128854E+00  5.44249258E-01
  1.68714478E-01  8.00000000E-01  5.48467166E+03  8.25234946E+02  1.88046958E+02
  5.29645000E+01  1.68975704E+01  5.79963534E+00  1.55396162E+01  3.59993359E+00
  1.01376175E+00  2.70005823E-01  8.00000000E-01  7.00171309E+03  1.05136609E+03
  2.39285690E+02  6.73974453E+01  2.15199573E+01  7.40310130E+00  2.08479528E+01
  4.80830834E+00  1.34406986E+00  3.58151393E-01  8.00000000E-01
Contraction coefficients                   R   N=          44
  1.81961690E-03  1.39160796E-02  6.84053245E-02  2.33185760E-01  4.71267439E-01
  3.56618546E-01 -1.08506975E-01 -1.46451658E-01  1.12868858E+00  1.00000000E+00
  1.00000000E+00  1.83473713E-03  1.40373228E-02  6.88426223E-02  2.32184443E-01
  4.67941348E-01  3.62311985E-01 -1.19332420E-01 -1.60854152E-01  1.14345644E+00
  1.00000000E+00  1.00000000E+00  1.83107443E-03  1.39501722E-02  6.84450781E-02
  2.32714336E-01  4.70192898E-01  3.58520853E-01 -1.10777550E-01 -1.48026263E-01
  1.13076702E+00  1.00000000E+00  1.00000000E+00  1.81961690E-03  1.39160796E-02
  6.84053245E-02  2.33185760E-01  4.71267439E-01  3.56618546E-01 -1.08506975E-01
 -1.46451658E-01  1.12868858E+00  1.00000000E+00  1.00000000E+00
P(S=P) Contraction coefficients            R   N=          44
  0.00000000E+00  0.00000000E+00  0.00000000E+00  0.00000000E+00  0.00000000E+00
  0.00000000E+00  7.16287242E-02  3.45912103E-01  7.22469956E-01  1.00000000E+00
  0.00000000E+00  0.00000000E+00  0.00000000E+00  0.00000000E+00  0.00000000E+00
  0.00000000E+00  0.00000000E+00  6.89990666E-02  3.16423961E-01  7.44308291E-01
  1.00000000E+00  0.00000000E+00  0.00000000E+00  0.00000000E+00  0.00000000E+00
  0.00000000E+00  0.00000000E+00  0.00000000E+00  7.08742682E-02  3.39752839E-01
  7.27158577E-01  1.00000000E+00  0.00000000E+00  0.00000000E+00  0.00000000E+00
  0.00000000E+00  0.00000000E+00  0.00000000E+00  0.00000000E+00  7.16287242E-02
  3.45912103E-01  7.22469956E-01  1.00000000E+00  0.00000000E+00
Coordinates of each shell                  R   N=          48
  2.32891409E+00 -1.10193408E+00  1.07330520E-01  2.32891409E+00 -1.10193408E+00
  1.07330520E-01  2.32891409E+00 -1.10193408E+00  1.07330520E-01  2.32891409E+00
 -1.10193408E+00  1.07330520E-01  2.21127151E-01  1.62217856E-01 -1.90619023E-01
  2.21127151E-01  1.62217856E-01 -1.90619023E-01  2.21127151E-01  1.62217856E-01
 -1.90619023E-01  2.21127151E-01  1.62217856E-01 -1.90619023E-01  8.94837001E-05
  2.54869553E+00 -1.33565252E-01  8.94837001E-05  2.54869553E+00 -1.33565252E-01
  8.94837001E-05  2.54869553E+00 -1.33565252E-01  8.94837001E-05  2.54869553E+00
 -1.33565252E-01 -2.46866042E+00 -1.14629600E+00  1.25520263E-01 -2.46866042E+00
 -1.14629600E+00  1.25520263E-01 -2.46866042E+00 -1.14629600E+00  1.25520263E-01
 -2.46866042E+00 -1.14629600E+00  1.25520263E-01
Num ILSW                                   I              100
ILSW                                       I   N=         100
           0           1           0           0           2           0
           0           0           0           0         402          -1
           5           0           0           0           0           0
           0           0           1           0           0           1
           1           1           0           0           0           0
           0           0      100000           0          -1           0
           0           0           0           0           0           0
           0           0           0           1           0           0
           0 -2000000000           1           0           0           0
           0           0           4          52           0           0
           0           0           5           0           0           0
           0           0           0           0           0           1
           0           0           0           0           0           0
           0           0           0           0           0           0
           0           0           0           0           0           0
           0           0           0           0           0           0
           0           0           0           0
Num RLSW                                   I               52
RLSW                                       R   N=          52
  8.00000000E-01  7.20000000E-01  1.00000000E+00  8.10000000E-01  2.00000000E-01
  0.00000000E+00  0.00000000E+00  1.00000000E+00  0.00000000E+00  0.00000000E+00
  0.00000000E+00  0.00000000E+00  1.00000000E+00  0.00000000E+00  0.00000000E+00
  0.00000000E+00  0.00000000E+00  1.00000000E+00  0.00000000E+00  0.00000000E+00
  0.00000000E+00  0.00000000E+00  1.00000000E+00  0.00000000E+00  0.00000000E+00
  0.00000000E+00  0.00000000E+00  1.00000000E+00  0.00000000E+00  0.00000000E+00
  0.00000000E+00  0.00000000E+00  1.00000000E+00  0.00000000E+00  0.00000000E+00
  0.00000000E+00  0.00000000E+00  0.00000000E+00  1.00000000E+00  1.00000000E+00
  0.00000000E+00  1.00000000E+00  0.00000000E+00  0.00000000E+00  0.00000000E+00
  0.00000000E+00  0.00000000E+00  0.00000000E+00  0.00000000E+00  0.00000000E+00
  0.00000000E+00  0.00000000E+00
MxBond                                     I                3
NBond                                      I   N=           4
           1           3           1           1
IBond                                      I   N=          12
           2           0           0           1           3           4
           2           0           0           2           0           0
RBond                                      R   N=          12
  1.00000000E+00  0.00000000E+00  0.00000000E+00  1.00000000E+00  2.00000000E+00
  1.00000000E+00  2.00000000E+00  0.00000000E+00  0.00000000E+00  1.00000000E+00
  0.00000000E+00  0.00000000E+00
Virial Ratio                               R      2.009559261945471E+00
SCF Energy                                 R     -3.129434024716641E+02
Total Energy                               R     -3.129434024716641E+02
RMS Force                                  R      6.164483436511253E-02
RMS Density                                R      2.000000000000000E+00
Job Status                                 I                1
Nuclear derivative order                   I                1
External E-field                           R   N=          35
  0.00000000E+00  0.00000000E+00  0.00000000E+00  0.00000000E+00  0.00000000E+00
  0.00000000E+00  0.00000000E+00  0.00000000E+00  0.00000000E+00  0.00000000E+00
  0.00000000E+00  0.00000000E+00  0.00000000E+00  0.00000000E+00  0.00000000E+00
  0.00000000E+00  0.00000000E+00  0.00000000E+00  0.00000000E+00  0.00000000E+00
  0.00000000E+00  0.00000000E+00  0.00000000E+00  0.00000000E+00  0.00000000E+00
  0.00000000E+00  0.00000000E+00  0.00000000E+00  0.00000000E+00  0.00000000E+00
  0.00000000E+00  0.00000000E+00  0.00000000E+00  0.00000000E+00  0.00000000E+00
IOpCl                                      I                0
IROHF                                      I                0
Alpha Orbital Energies                     R   N=          60
 -2.47847488E+01 -2.47847484E+01 -1.91901886E+01 -1.04575550E+01 -1.32267192E+00
 -1.27367456E+00 -1.07762624E+00 -6.90517388E-01 -6.24424690E-01 -5.65552191E-01
 -5.36676238E-01 -4.83726941E-01 -4.75027784E-01 -4.56507454E-01 -3.81164098E-01
 -3.34590066E-01 -3.37686524E-02  5.05468311E-02  2.61105473E-01  3.12449234E-01
  4.64383003E-01  4.72063315E-01  4.76355205E-01  5.89976867E-01  8.36858588E-01
  9.45385394E-01  9.52909989E-01  1.04092845E+00  1.09809649E+00  1.11761449E+00
  1.22097155E+00  1.26921527E+00  1.28250308E+00  1.33727770E+00  1.35488383E+00
  1.37280788E+00  1.60397292E+00  1.64381962E+00  1.74448222E+00  1.76299316E+00
  1.77699125E+00  1.79486980E+00  1.81365451E+00  1.85257253E+00  1.90568677E+00
  1.92017068E+00  1.95793392E+00  2.08670287E+00  2.12391657E+00  2.54426235E+00
  2.60078078E+00  2.71574894E+00  2.76055679E+00  2.96837373E+00  3.02903602E+00
  3.06951680E+00  3.75632476E+00  4.15448721E+00  4.42977974E+00  4.61922865E+00
Alpha MO coefficients                      R   N=        3600
  7.84834790E-01  1.56281836E-02 -5.82689719E-04  2.79225111E-04 -1.77123484E-05
  1.17201310E-02  4.14867327E-04 -2.51841048E-04  1.63361750E-05 -6.63054976E-03
 -6.34373645E-03 -6.20936759E-03  2.33995409E-04 -1.48471571E-05  1.01817787E-05
  3.50508181E-05  5.32901564E-04  9.61843540E-05 -4.39147968E-04  3.05330636E-05
 -6.40505135E-04 -1.40326221E-04  5.64188375E-04 -3.91715731E-05  6.37656991E-04
  3.39988588E-04 -2.13558442E-05 -3.36116825E-05 -1.28527367E-07 -2.93430422E-05
  2.38410223E-05  1.90915392E-04 -3.58241674E-06  3.84886534E-05 -2.69178239E-06
 -6.64472750E-04  2.23063040E-05  3.40663471E-04 -2.40011613E-05  2.54654042E-05
 -1.38255380E-04  1.38911040E-04  7.02979994E-06 -6.12271096E-08  2.25685365E-05
  6.08386278E-01  1.22034689E-02  4.62716612E-04  2.20833571E-04 -1.70215930E-05
  8.81915530E-03 -3.83991142E-04 -2.53461586E-04  1.90564219E-05 -5.12972157E-03
 -4.86404059E-03 -4.74239543E-03 -1.94348247E-04  1.51130163E-05  1.05560974E-05
 -6.08319626E-01 -1.17569065E-02  4.14292404E-04 -1.83775396E-04  1.15571610E-05
 -1.01512028E-02 -7.91850431E-05 -5.08898023E-05  3.83299328E-06  5.19040748E-03
  5.12044180E-03  5.09804573E-03 -1.19240841E-04  8.02734002E-06 -1.43262412E-06
  4.43947748E-06  6.74959927E-05 -7.72969647E-04 -5.24296728E-05  6.20474144E-06
 -8.11249336E-05  1.12534370E-03  6.68116565E-05 -8.36458073E-06  8.24867069E-05
  4.12479945E-05 -2.61144435E-06  2.53444491E-04 -1.81243216E-05 -4.41016904E-06
  3.01967902E-06  2.41811338E-05  2.94739684E-05  4.75322485E-06 -4.30033201E-07
 -8.41614052E-05 -1.65572372E-04  4.38327405E-05 -2.53862345E-06  2.81120016E-06
 -1.70745445E-05  1.75718751E-05 -6.11232705E-05  4.34980747E-06  3.02541206E-06
  7.84783125E-01  1.52820263E-02  5.48376883E-04  2.43136314E-04 -1.88676979E-05
  1.27526790E-02 -1.80216959E-04 -1.20407052E-05  1.43370723E-06 -6.68192908E-03
 -6.53791371E-03 -6.48528811E-03 -1.72458660E-04  1.28556709E-05  4.85794330E-06
  3.92906524E-06  3.18112951E-05 -1.14943776E-05 -4.55874269E-05  3.23952691E-06
 -2.57013832E-05  4.97428592E-05  1.98014305E-04 -1.40706920E-05  7.42355444E-05
 -1.01267202E-04  3.41804854E-05  3.34876204E-05 -2.50063250E-06  1.09298754E-05
  3.64129878E-05  6.17609937E-04 -2.03010647E-07 -5.26328663E-05  3.69775761E-06
 -3.26973489E-03 -8.82579381E-06 -2.28855017E-03  1.60777405E-04  7.10892751E-06
 -8.43489559E-04  4.06506958E-05 -3.77863214E-06  4.08298618E-07  7.20779384E-05
  9.92802487E-01  2.58161902E-02 -4.81798335E-06 -1.24930200E-03  8.77662857E-05
  1.28470684E-02 -5.24342992E-06 -1.35964608E-03  9.55202699E-05 -7.98933502E-03
 -7.47273377E-03 -8.00188766E-03  2.29685469E-06 -2.18453843E-07 -4.31382623E-05
  3.92906643E-06  3.18113351E-05  1.11424122E-05 -4.56794237E-05  3.17213348E-06
 -2.57015263E-05 -4.82141280E-05  1.98412515E-04 -1.37790643E-05  7.37775498E-05
 -1.00784375E-04  3.41556836E-05 -3.50654134E-05  2.31633272E-06  1.11143823E-05
  2.48227015E-05  6.04378812E-04 -1.17235592E-04  5.31862119E-05 -3.35340078E-06
 -1.94257331E-03  1.74496239E-03 -9.13061099E-04  5.84419201E-05 -4.78898378E-04
  2.56974487E-04  5.61045733E-04  6.03758446E-04 -3.84867542E-05  2.27966488E-05
  9.92983936E-01  4.63117651E-02 -5.79215141E-06 -1.50223206E-03  1.05536375E-04
 -3.07608862E-03  2.37766904E-08  5.91552754E-06 -4.13806426E-07 -7.67028189E-03
 -8.14705646E-03 -9.58501875E-03 -2.58777099E-06 -7.05872281E-06 -1.17200791E-04
 -2.09748208E-04  4.05324667E-05 -4.36878877E-07 -1.13293768E-04  7.95927306E-06
 -5.08567464E-04  3.80693806E-06  9.87212825E-04 -6.93548989E-05 -7.85240573E-05
 -1.18431713E-05  1.31373746E-05  3.19096762E-07  3.23378863E-07  2.03484315E-06
  2.48226358E-05  6.04377962E-04  1.17642162E-04  5.22312586E-05 -4.05265522E-06
 -1.94256917E-03 -1.75194868E-03 -8.98842993E-04  6.88524737E-05 -4.86917048E-04
  2.65427050E-04  5.60610246E-04 -5.96626234E-04  4.58613943E-05  2.60274742E-05
 -1.47785861E-01  3.33526145E-01 -7.23304760E-02  3.56731654E-02 -2.26977102E-03
  2.98186909E-01 -4.18314175E-02  1.75277680E-02 -1.09465820E-03  2.14028763E-02
  7.64990927E-03  5.67575908E-03 -8.69534899E-03  5.51496835E-04 -1.32280523E-04
 -9.75301632E-02  1.86338855E-01 -2.35066215E-04 -6.10221300E-02  4.28711233E-03
  3.26347695E-02 -1.55922367E-06 -3.96843044E-04  2.78254248E-05  1.02179824E-02
 -6.77702555E-03 -1.95550833E-02 -8.29390050E-05 -1.06580354E-04 -1.04129401E-03
 -2.84111537E-02  6.32631265E-02 -1.45422139E-04 -3.77139299E-02  2.64952760E-03
  4.99575153E-02 -6.79705867E-05 -1.76282532E-02  1.23845762E-03 -1.82657145E-03
  8.25740054E-03 -2.52422505E-04  4.52693514E-05  2.59236991E-06 -6.93777293E-04
 -1.47785388E-01  3.33525089E-01  7.26031461E-02  3.50837882E-02 -2.70124273E-03
  2.98185921E-01  4.19652212E-02  1.71870190E-02 -1.34412050E-03  2.15181394E-02
  7.52834948E-03  5.68200153E-03  8.56416123E-03 -6.61265972E-04 -1.78731020E-04
  1.61278839E-01 -3.64703529E-01  5.76283556E-02 -3.63914045E-02  2.36818903E-03
 -3.34674446E-01  2.42857223E-02 -1.67879104E-02  1.09994555E-03 -1.27643955E-02
 -8.79871378E-03 -6.66132794E-03  5.46588493E-03 -3.60904816E-04  1.56222333E-04
 -1.28333970E-07  2.43308688E-07 -1.56656101E-01  6.36844247E-04  4.66384148E-04
  4.50792756E-08  9.04969406E-03 -3.68456426E-05 -2.69435251E-05  1.99133823E-04
 -2.09932050E-04  1.07760500E-05  2.98103181E-02 -2.09468164E-03 -8.02352996E-05
 -5.12261212E-08  9.48209374E-08 -1.32008933E-02  5.36120491E-05  3.93041165E-05
  1.55830115E-07 -9.79612023E-03  3.97798628E-05  2.91678776E-05  3.14589594E-05
 -3.31678277E-05  1.69731797E-06  4.71098892E-03 -3.31022627E-04 -1.26810183E-05
 -1.61279275E-01  3.64704549E-01  5.79074239E-02  3.59217559E-02 -2.71215581E-03
  3.34675269E-01  2.44145527E-02  1.65899627E-02 -1.24492680E-03  1.28372406E-02
  8.72204943E-03  6.66531235E-03  5.42695336E-03 -4.04493483E-04 -1.85537674E-04
  4.25560280E-02 -9.71759814E-02  9.84715010E-04  2.30537714E-02 -1.62253122E-03
 -9.83997646E-02 -4.75442315E-03  1.85320826E-02 -1.28616373E-03 -1.96053239E-04
  1.13575801E-03 -2.19614419E-03 -4.85513879E-03  3.33437575E-04 -2.55577284E-04
 -9.00592934E-02  1.94132425E-01  9.30863956E-04  2.41378283E-01 -1.69576085E-02
  2.82294887E-02 -4.40437406E-05 -1.14115009E-02  8.01584461E-04 -2.97099037E-02
  2.23081633E-02 -1.43972572E-02  2.35302478E-04  4.04764273E-05 -2.99258710E-03
 -1.94267274E-01  4.26483130E-01 -6.31001885E-04 -1.63621683E-01  1.14949103E-02
  3.86287608E-01 -2.07642738E-04 -5.38447026E-02  3.78274208E-03 -9.62598177E-03
  1.06285073E-02 -6.01401424E-03  9.10474030E-05  6.90508611E-06 -1.35680709E-03
  4.25560340E-02 -9.71759885E-02 -8.06874799E-04  2.30610406E-02 -1.61719620E-03
 -9.83998140E-02  4.89719827E-03  1.84928244E-02 -1.31489859E-03 -1.31122544E-04
  1.06730040E-03 -2.19262371E-03  4.86541515E-03 -3.49584200E-04 -2.81738863E-04
  6.78556630E-02 -1.40202746E-01 -3.18164572E-01  1.11895379E-01 -6.82178449E-03
 -2.43365277E-01 -1.86039400E-01  5.99419974E-02 -3.60354815E-03  2.41093723E-02
  1.64817022E-03  4.39799269E-04 -9.20304029E-03  5.57272755E-04 -6.81857850E-05
 -1.23273255E-01  2.98469575E-01 -7.85597906E-04 -2.03761108E-01  1.43149675E-02
  1.53336343E-01 -9.83923903E-05 -2.55013566E-02  1.79158421E-03  3.94335576E-03
 -1.33374077E-02 -1.31055368E-02 -8.10914012E-05 -5.85296216E-05  1.91315899E-05
  5.50143652E-02 -1.21517706E-01 -1.91475824E-04 -4.96603804E-02  3.48882485E-03
 -1.53776502E-01 -1.24932724E-04 -3.24041132E-02  2.27646957E-03  1.57914483E-04
  1.10287994E-02  1.75846913E-03  4.87778060E-05  2.42985288E-06 -7.55773538E-04
  6.78555901E-02 -1.40202601E-01  3.19017179E-01  1.09304571E-01 -8.71871545E-03
 -2.43365018E-01  1.86495660E-01  5.84272440E-02 -4.71261148E-03  2.42308800E-02
  1.52003366E-03  4.46384920E-04  8.99040772E-03 -7.21160390E-04 -1.17152234E-04
  4.84798944E-02 -9.40745385E-02 -2.76713148E-01  2.68223535E-01 -1.79376906E-02
 -1.91377770E-01 -1.51004001E-01  1.58318297E-01 -1.06278493E-02  1.01083523E-02
  1.09243908E-02  1.70994763E-03 -1.13662927E-02  7.66598231E-04 -7.13617193E-04
  7.51273156E-08 -1.69803219E-07  3.59723064E-01 -1.46237264E-03 -1.07093147E-03
 -1.71598118E-07  3.25201565E-02 -1.32273371E-04 -9.68002308E-05 -1.42916176E-04
  1.50673662E-04 -7.74921060E-06 -2.13972920E-02  1.50353896E-03  5.75913448E-05
 -2.89332451E-08  5.10941434E-08  1.21560683E-01 -4.94182351E-04 -3.61892334E-04
  1.67472609E-07  7.18708563E-02 -2.92196485E-04 -2.13959648E-04 -9.53320004E-05
  1.00486517E-04 -5.17466937E-06 -1.42709965E-02  1.00278203E-03  3.84098965E-05
 -4.84799617E-02  9.40747166E-02 -2.78773654E-01 -2.65965053E-01  1.95914212E-02
  1.91377916E-01 -1.52220663E-01 -1.57085422E-01  1.15305678E-02 -1.02602402E-02
 -1.07642627E-02 -1.71816691E-03 -1.13680570E-02  8.30885875E-04  7.74801640E-04
 -3.27025701E-08 -3.35561858E-07  1.19822641E-03  2.57959190E-02  3.67240518E-01
  9.16752112E-07  7.55503702E-04  1.62687049E-02  2.31604532E-01 -1.03993024E-04
  1.04801631E-03 -9.44593094E-04 -1.26220358E-03 -1.83707589E-02  8.57739698E-03
 -1.99918166E-08  2.10385704E-07  1.03946543E-03  2.23788483E-02  3.18595877E-01
 -8.09685438E-07  5.05819561E-04  1.08891755E-02  1.55022732E-01 -2.03840470E-07
 -8.96210068E-04  8.96373003E-04 -2.60272125E-05 -2.66922833E-05 -7.32950925E-03
  1.48450807E-07 -2.62270718E-07  5.26434445E-04  1.13329235E-02  1.61349785E-01
 -5.77381435E-07  2.38703985E-04  5.13867282E-03  7.31612965E-02 -2.19658466E-07
 -1.76156251E-03  1.76205133E-03 -5.11659264E-05 -5.25219061E-05 -1.44086197E-02
 -3.17568534E-08 -3.44271689E-07  1.19813164E-03  2.57959110E-02  3.67239949E-01
  9.45057760E-07  7.55792926E-04  1.62687137E-02  2.31604153E-01  1.03987157E-04
  1.02981725E-03 -1.13436557E-03  1.32256237E-03  1.84326946E-02  8.42005447E-03
  2.69539547E-03  9.91643440E-04 -1.70120393E-01 -2.98792315E-01  2.15431450E-02
 -3.46439601E-02 -9.92659630E-02 -1.93337766E-01  1.39044400E-02  1.26840354E-02
 -6.41648188E-03  2.18139815E-03  1.05192016E-02 -7.78324261E-04  6.66156296E-04
  4.60074822E-02 -1.25604863E-01 -8.19452148E-04 -2.12509036E-01  1.49300443E-02
 -9.00021805E-02 -5.22393759E-04 -1.35460314E-01  9.51681553E-03 -1.17721753E-02
  2.63714803E-02  3.35455461E-03  1.73452246E-04  4.43767050E-05 -1.87668246E-03
 -9.40904017E-02  1.91757906E-01  1.11924636E-03  2.90225102E-01 -2.03889563E-02
  4.34121536E-01  4.37494239E-04  1.13438828E-01 -7.96931467E-03 -8.86386444E-03
 -2.81763401E-02 -3.32738750E-03 -8.46398108E-05  2.72687875E-05  2.02565757E-03
  2.69536942E-03  9.91598731E-04  1.67810017E-01 -3.00165935E-01  2.05370068E-02
 -3.46436901E-02  9.77713763E-02 -1.94138636E-01  1.33177737E-02  1.25422682E-02
 -6.26714739E-03  2.17365744E-03 -1.06930254E-02  7.12218635E-04  7.23240428E-04
 -8.57209163E-08 -4.44121604E-07  1.56022861E-03  3.35379766E-02  4.77434574E-01
  1.50030462E-06  1.07730704E-03  2.31618535E-02  3.29719753E-01 -9.46523826E-05
  1.15647333E-03 -1.06274538E-03 -1.14033553E-03 -1.66770539E-02  9.46425260E-03
 -9.52897603E-09  1.55649658E-08 -2.48609680E-07  3.01448456E-08 -1.84609988E-07
  4.54997000E-08 -5.98960006E-07 -3.17986602E-08 -1.14142109E-07  1.84023378E-04
 -1.61115129E-05 -1.67918771E-04  2.28723595E-03  3.25638285E-02 -1.39207018E-04
  1.32714691E-08 -3.55970376E-08  7.59279926E-07 -8.26089884E-08 -1.45719478E-07
 -3.36739316E-08  8.43203910E-07 -4.89571127E-08 -7.49809699E-08  1.49787054E-05
 -1.30717030E-06 -1.36771516E-05  1.86126278E-04  2.65132877E-03 -1.13231877E-05
  8.78389495E-08  4.69368372E-07 -1.55523274E-03 -3.35380555E-02 -4.77435002E-01
 -1.57942070E-06 -1.07427643E-03 -2.31619111E-02 -3.29720020E-01 -9.42137447E-05
 -1.13993181E-03  1.23510107E-03 -1.20704837E-03 -1.67455521E-02 -9.32138365E-03
 -1.21304148E-04  9.24092639E-03  3.56144704E-01  3.18120629E-01 -2.35107696E-02
 -4.15709406E-02  2.41215688E-01  2.04972138E-01 -1.51868807E-02 -9.71573434E-03
  1.64694926E-02  5.12671649E-03 -4.89770937E-03  3.99844904E-04 -9.08465684E-04
  4.58337060E-08 -1.45910438E-07 -2.14268025E-02  8.68344954E-05  6.38272311E-05
 -9.49690024E-08  8.83698510E-02 -3.59560341E-04 -2.63056971E-04  2.43505069E-04
 -2.56695922E-04  1.32079770E-05  3.64502194E-02 -2.56147638E-03 -9.81030921E-05
 -9.14829549E-08  1.53840430E-07  9.99534565E-02 -4.05916511E-04 -2.97576257E-04
  5.91233722E-07  5.58284799E-02 -2.26805796E-04 -1.66193723E-04 -1.75186891E-05
  1.84098401E-05 -9.60876515E-07 -2.62022386E-03  1.84114766E-04  7.05196845E-06
  1.21324721E-04 -9.24093383E-03  3.53680207E-01 -3.21006373E-01  2.13975448E-02
  4.15707318E-02  2.39627312E-01 -2.06926905E-01  1.37553504E-02  9.64870745E-03
 -1.63988150E-02 -5.13034784E-03 -5.13742221E-03  3.05508822E-04  9.35467826E-04
 -1.59387447E-03  3.88573380E-03  2.29457112E-02  3.30683772E-01 -2.33026309E-02
  2.33770641E-02  1.47812414E-02  2.13092374E-01 -1.50160959E-02 -4.54381914E-03
  2.84652699E-03 -5.13520160E-04 -4.75039132E-03  3.48798115E-04 -2.58220436E-04
  4.57092337E-02 -1.21785644E-01 -9.16057124E-04 -2.37529890E-01  1.66873277E-02
 -3.39626153E-02  3.78364778E-04  9.81258408E-02 -6.89378718E-03  4.24601765E-02
 -2.12693276E-02  1.85424324E-03 -2.93598557E-04 -1.31921493E-04  1.88575101E-03
 -5.95495697E-02  1.38220587E-01  1.61730221E-03  4.19401485E-01 -2.94641952E-02
  1.77744492E-01  9.39711363E-04  2.43690895E-01 -1.71199701E-02  8.04132379E-03
 -2.33441773E-02  5.27182798E-03 -1.40388593E-04 -3.78240470E-08  2.33289601E-03
 -1.59385851E-03  3.88576552E-03 -2.03948690E-02  3.30860484E-01 -2.31737509E-02
  2.33768673E-02 -1.31374998E-02  2.13206213E-01 -1.49330774E-02 -4.47988236E-03
  2.77921252E-03 -5.10012495E-04  4.81755618E-03 -3.23504394E-04 -2.83972262E-04
  2.53278839E-08  1.75486452E-07 -8.23755595E-04 -1.77361663E-02 -2.52502461E-01
 -5.50982170E-07 -5.98018245E-04 -1.28780205E-02 -1.83339174E-01  2.66906262E-05
  1.02174240E-04 -1.28514286E-04  3.33393743E-04  4.70705788E-03  8.33444092E-04
  5.56970131E-08  1.46469520E-07  8.27688704E-04  1.78194622E-02  2.53686141E-01
 -2.52565558E-07  2.96256747E-04  6.37566811E-03  9.07749154E-02  9.63296706E-07
  4.87475174E-03 -4.87550490E-03  1.41582580E-04  1.45337452E-04  3.98700108E-02
  4.02372033E-08  1.59561618E-07  1.67639374E-03  3.60890672E-02  5.13795467E-01
 -4.29370334E-07  1.13502214E-03  2.44352655E-02  3.47878845E-01 -4.40568974E-07
 -3.92721363E-03  3.92827211E-03 -1.14067475E-04 -1.17091421E-04 -3.21216625E-02
  1.93448899E-08  1.65395606E-07 -8.23923897E-04 -1.77360870E-02 -2.52502526E-01
 -4.35574873E-07 -5.98327275E-04 -1.28779434E-02 -1.83339214E-01 -2.64842736E-05
  1.06824058E-04 -8.00108682E-05 -3.27327666E-04 -4.70083769E-03  8.73660282E-04
  1.08657213E-02 -2.02729957E-02  4.34299120E-02 -1.96555994E-01  1.36646766E-02
 -8.46551310E-02  4.16221405E-02 -1.46106012E-01  1.01268706E-02  3.43788576E-03
  2.14383553E-03  2.02314791E-03  5.34079605E-03 -3.80479822E-04 -2.74152016E-05
  6.34756474E-09  2.94495343E-08  7.71702271E-02 -3.13743040E-04 -2.29792117E-04
 -9.40647906E-08  1.16882115E-01 -4.75209694E-04 -3.47944398E-04  2.98300896E-04
 -3.14467970E-04  1.61869493E-05  4.46568602E-02 -3.13785778E-03 -1.20196526E-04
  3.98049512E-10 -1.15778982E-08  6.16770073E-01 -2.50759450E-03 -1.83623546E-03
  4.59221523E-08  4.01386515E-01 -1.63191818E-03 -1.19501140E-03 -1.86220305E-04
  1.96313607E-04 -1.01061930E-05 -2.78778625E-02  1.95895930E-03  7.50366891E-05
 -1.08657146E-02  2.02730237E-02  4.49445941E-02  1.96196791E-01 -1.39277531E-02
  8.46550523E-02  4.27477700E-02  1.45763041E-01 -1.03780386E-02 -3.36642625E-03
 -2.21910036E-03 -2.01924643E-03  5.35232987E-03 -3.70881047E-04 -1.36901043E-06
 -1.35707104E-07  3.70683095E-07 -7.15698754E-04 -1.53935407E-02 -2.19155303E-01
  1.11930908E-06 -6.02973259E-04 -1.29602516E-02 -1.84508294E-01 -9.05867418E-05
  8.07377856E-04 -7.16650824E-04 -1.10536654E-03 -1.60467905E-02  6.60701427E-03
  3.79242264E-07 -8.11480293E-07  2.05566635E-03  4.42568335E-02  6.30060825E-01
 -3.84325539E-07  1.51412382E-03  3.26077310E-02  4.64176515E-01 -4.33599295E-07
 -3.02633879E-03  3.02686586E-03 -8.78972725E-05 -9.02382746E-05 -2.47537167E-02
  6.54847204E-08  7.14205639E-07 -1.33996007E-03 -2.88477092E-02 -4.10692083E-01
 -3.66112804E-06 -1.31290037E-03 -2.82668248E-02 -4.02441577E-01  1.17148517E-07
 -7.74871332E-04  7.75460863E-04 -2.25209528E-05 -2.31099330E-05 -6.33924881E-03
 -1.04952329E-07  4.88471894E-07 -7.14353923E-04 -1.53935580E-02 -2.19155253E-01
  4.97124216E-07 -6.01088916E-04 -1.29603778E-02 -1.84508227E-01  9.11317083E-05
  7.91557330E-04 -8.82301730E-04  1.15179078E-03  1.60944542E-02  6.46961820E-03
  6.58193779E-02 -1.30638850E-01  3.19467019E-01 -9.04915729E-02  5.31355660E-03
 -5.49789427E-01  3.87169047E-01 -1.52678890E-01  9.46077947E-03  1.01194169E-02
  7.95534570E-04  2.08010439E-02  7.16353105E-03 -4.62630961E-04  1.60712195E-03
 -1.54362348E-01  2.58644257E-01 -1.18473423E-03 -3.07133580E-01  2.15791484E-02
  1.62520701E+00 -5.05511084E-04 -1.30975907E-01  9.20308483E-03 -3.43009521E-02