 Entering Gaussian System, Link 0=g16
 Input=CF2O_ADMP_800K.gjf
 Output=CF2O_ADMP_800K.log
 Initial command:
 /apps/easybuild-2022/easybuild/software/Compiler/NVHPC/22.11-CUDA-11.7.0/Gaussian/g16c01-CUDA-11.7.0/g16/l1.exe "/tmp/Gau-22985.inp" -scrdir="/tmp/"
 Default is to use a total of   4 processors:
                                4 via shared-memory
                                1 via Linda
 Entering Link 1 = /apps/easybuild-2022/easybuild/software/Compiler/NVHPC/22.11-CUDA-11.7.0/Gaussian/g16c01-CUDA-11.7.0/g16/l1.exe PID=     22992.
  
 Copyright (c) 1988-2019, Gaussian, Inc.  All Rights Reserved.
  
 This is part of the Gaussian(R) 16 program.  It is based on
 the Gaussian(R) 09 system (copyright 2009, Gaussian, Inc.),
 the Gaussian(R) 03 system (copyright 2003, Gaussian, Inc.),
 the Gaussian(R) 98 system (copyright 1998, Gaussian, Inc.),
 the Gaussian(R) 94 system (copyright 1995, Gaussian, Inc.),
 the Gaussian 92(TM) system (copyright 1992, Gaussian, Inc.),
 the Gaussian 90(TM) system (copyright 1990, Gaussian, Inc.),
 the Gaussian 88(TM) system (copyright 1988, Gaussian, Inc.),
 the Gaussian 86(TM) system (copyright 1986, Carnegie Mellon
 University), and the Gaussian 82(TM) system (copyright 1983,
 Carnegie Mellon University). Gaussian is a federally registered
 trademark of Gaussian, Inc.
  
 This software contains proprietary and confidential information,
 including trade secrets, belonging to Gaussian, Inc.
  
 This software is provided under written license and may be
 used, copied, transmitted, or stored only in accord with that
 written license.
  
 The following legend is applicable only to US Government
 contracts under FAR:
  
                    RESTRICTED RIGHTS LEGEND
  
 Use, reproduction and disclosure by the US Government is
 subject to restrictions as set forth in subparagraphs (a)
 and (c) of the Commercial Computer Software - Restricted
 Rights clause in FAR 52.227-19.
  
 Gaussian, Inc.
 340 Quinnipiac St., Bldg. 40, Wallingford CT 06492
  
  
 ---------------------------------------------------------------
 Warning -- This program may not be used in any manner that
 competes with the business of Gaussian, Inc. or will provide
 assistance to any competitor of Gaussian, Inc.  The licensee
 of this program is prohibited from giving any competitor of
 Gaussian, Inc. access to this program.  By using this program,
 the user acknowledges that Gaussian, Inc. is engaged in the
 business of creating and licensing software in the field of
 computational chemistry and represents and warrants to the
 licensee that it is not a competitor of Gaussian, Inc. and that
 it will not use this program in any manner prohibited above.
 ---------------------------------------------------------------
  

 Cite this work as:
 Gaussian 16, Revision C.01,
 M. J. Frisch, G. W. Trucks, H. B. Schlegel, G. E. Scuseria, 
 M. A. Robb, J. R. Cheeseman, G. Scalmani, V. Barone, 
 G. A. Petersson, H. Nakatsuji, X. Li, M. Caricato, A. V. Marenich, 
 J. Bloino, B. G. Janesko, R. Gomperts, B. Mennucci, H. P. Hratchian, 
 J. V. Ortiz, A. F. Izmaylov, J. L. Sonnenberg, D. Williams-Young, 
 F. Ding, F. Lipparini, F. Egidi, J. Goings, B. Peng, A. Petrone, 
 T. Henderson, D. Ranasinghe, V. G. Zakrzewski, J. Gao, N. Rega, 
 G. Zheng, W. Liang, M. Hada, M. Ehara, K. Toyota, R. Fukuda, 
 J. Hasegawa, M. Ishida, T. Nakajima, Y. Honda, O. Kitao, H. Nakai, 
 T. Vreven, K. Throssell, J. A. Montgomery, Jr., J. E. Peralta, 
 F. Ogliaro, M. J. Bearpark, J. J. Heyd, E. N. Brothers, K. N. Kudin, 
 V. N. Staroverov, T. A. Keith, R. Kobayashi, J. Normand, 
 K. Raghavachari, A. P. Rendell, J. C. Burant, S. S. Iyengar, 
 J. Tomasi, M. Cossi, J. M. Millam, M. Klene, C. Adamo, R. Cammi, 
 J. W. Ochterski, R. L. Martin, K. Morokuma, O. Farkas, 
 J. B. Foresman, and D. J. Fox, Gaussian, Inc., Wallingford CT, 2019.
 
 ******************************************
 Gaussian 16:  ES64L-G16RevC.01  3-Jul-2019
                19-Mar-2025 
 ******************************************
 %chk=CF2O_ADMP_800K.chk
 %mem=8GB
 %nprocshared=8
 Will use up to    8 processors via shared memory.
 ---------------------------------------------------
 # B3LYP/6-31G(d) ADMP int=ultrafine Temperature=800
 ---------------------------------------------------
 1/26=4,29=20000,38=1,112=800000,172=1/1,21;
 2/12=2,17=6,18=5,29=2,40=1/2;
 3/5=1,6=6,7=1,11=2,25=1,30=1,65=-1,71=1,74=-5,75=-5,89=400,90=600/1,2,3;
 4//1;
 5/5=2,14=200,38=5/2;
 6/7=2,8=2,9=2,10=2,28=1/1;
 7/7=1,127=-100/1,2,3,16;
 1/26=4/21(2);
 2/29=1/2;
 99/12=1/99;
 2/29=1/2;
 3/5=1,6=6,7=1,11=2,25=1,30=1,65=-1,71=1,74=-5,75=-5,89=400,90=600/1,2,3;
 5/5=2,14=100/2;
 7/7=1,127=-100/1,2,3,16;
 1/26=4/21(-4);
 2/29=1/2;
 6/7=2,8=2,9=2,10=2,19=2,28=1/1;
 99/9=1,12=1/99;
 ---------------------------------------------------------
 CF2O ADMP thermal decomposition simulation targeting 800K
 ---------------------------------------------------------
 Symbolic Z-matrix:
 Charge =  0 Multiplicity = 1
 F                     1.15556  -0.6409    0.13727 
 C                     0.00011   0.02773   0.09407 
 O                     0.0048    1.24465   0.00858 
 F                    -1.16046  -0.63148   0.14416 
 
 TRJ-TRJ-TRJ-TRJ-TRJ-TRJ-TRJ-TRJ-TRJ-TRJ-TRJ-TRJ-TRJ-TRJ-TRJ-TRJ-TRJ-TRJ
 ------------------------------------------------------------------------
 INPUT DATA FOR L121
 ------------------------------------------------------------------------

 General parameters:
 Maximum Steps                =      50
 Random Number Generator Seed =    398465
 Time Step                    =  0.10000 femtosec
 Ficticious electronic mass   =  0.10000 amu
 MW individual basis funct.   = True 
 Initial nuclear kin. energy  =  0.10000 hartree
 Initial electr. kin. energy  =  0.00000 hartree
   Initial electr. KE scheme  =  0
 Multitime step - NDtrC       =       1
 Multitime step - NDtrP       =       1
 No Thermostats chosen to control nuclear temperature

 Integration parameters:

 Follow Rxn Path (DVV)        = False
 Constraint Scheme            =      10
 Projection of angular mom.   = True 
 Rotate density with nuclei   = True 
 ------------------------------------------------------------------------
 TRJ-TRJ-TRJ-TRJ-TRJ-TRJ-TRJ-TRJ-TRJ-TRJ-TRJ-TRJ-TRJ-TRJ-TRJ-TRJ-TRJ-TRJ
 ---------------------------------------------------------------------------------------------------
                            Z-MATRIX (ANGSTROMS AND DEGREES)
   CD    Cent   Atom    N1       Length/X        N2       Alpha/Y        N3        Beta/Z          J
 ---------------------------------------------------------------------------------------------------
      1      1  F        0   1.155557         -0.640897          0.137266
      2      2  C        0   0.000107          0.027733          0.094070
      3      3  O        0   0.004800          1.244645          0.008578
      4      4  F        0  -1.160464         -0.631481          0.144161
 ---------------------------------------------------------------------------------------------------
                         Z-Matrix orientation:                         
 ---------------------------------------------------------------------
 Center     Atomic      Atomic             Coordinates (Angstroms)
 Number     Number       Type             X           Y           Z
 ---------------------------------------------------------------------
      1          9           0        1.155557   -0.640897    0.137266
      2          6           0        0.000107    0.027733    0.094070
      3          8           0        0.004800    1.244645    0.008578
      4          9           0       -1.160464   -0.631481    0.144161
 ---------------------------------------------------------------------
                    Distance matrix (angstroms):
                    1          2          3          4
     1  F    0.000000
     2  C    1.335663   0.000000
     3  O    2.212707   1.219920   0.000000
     4  F    2.316050   1.335664   2.212707   0.000000
 Symmetry turned off by external request.
 Stoichiometry    CF2O
 Framework group  CS[SG(CF2O)]
 Deg. of freedom     5
 Full point group                 CS      NOp   2
 Rotational constants (GHZ):          12.5936531           9.9182278           5.5484800
 Standard basis: 6-31G(d) (6D, 7F)
    60 basis functions,   112 primitive gaussians,    60 cartesian basis functions
    16 alpha electrons       16 beta electrons
       nuclear repulsion energy       116.5552578429 Hartrees.
 NAtoms=    4 NActive=    4 NUniq=    4 SFac= 1.00D+00 NAtFMM=   60 NAOKFM=F Big=F
 Integral buffers will be    131072 words long.
 Raffenetti 2 integral format.
 Two-electron integral symmetry is turned off.
 One-electron integrals computed using PRISM.
 NBasis=    60 RedAO= T EigKep=  4.32D-03  NBF=    60
 NBsUse=    60 1.00D-06 EigRej= -1.00D+00 NBFU=    60
 ExpMin= 1.69D-01 ExpMax= 7.00D+03 ExpMxC= 1.05D+03 IAcc=3 IRadAn=         5 AccDes= 0.00D+00
 Harris functional with IExCor=  402 and IRadAn=       5 diagonalized for initial guess.
 HarFok:  IExCor=  402 AccDes= 0.00D+00 IRadAn=         5 IDoV= 1 UseB2=F ITyADJ=14
 ICtDFT=  3500011 ScaDFX=  1.000000  1.000000  1.000000  1.000000
 FoFCou: FMM=F IPFlag=           0 FMFlag=      100000 FMFlg1=           0
         NFxFlg=           0 DoJE=T BraDBF=F KetDBF=T FulRan=T
         wScrn=  0.000000 ICntrl=       500 IOpCl=  0 I1Cent=   200000004 NGrid=           0
         NMat0=    1 NMatS0=      1 NMatT0=    0 NMatD0=    1 NMtDS0=    0 NMtDT0=    0
 Symmetry not used in FoFCou.
 Keep R1 ints in memory in canonical form, NReq=8755229.
 Requested convergence on RMS density matrix=1.00D-08 within 128 cycles.
 Requested convergence on MAX density matrix=1.00D-06.
 Requested convergence on             energy=1.00D-06.
 No special actions if energy rises.
 Integral accuracy reduced to 1.0D-05 until final iterations.
 Initial convergence to 1.0D-05 achieved.  Increase integral accuracy.
 SCF Done:  E(RB3LYP) =  -312.995980883     A.U. after   12 cycles
            NFock= 12  Conv=0.65D-08     -V/T= 2.0081

 **********************************************************************

            Population analysis using the SCF Density.

 **********************************************************************

 Alpha  occ. eigenvalues --  -24.78475 -24.78475 -19.19019 -10.45755  -1.32267
 Alpha  occ. eigenvalues --   -1.27367  -1.07763  -0.69052  -0.62442  -0.56555
 Alpha  occ. eigenvalues --   -0.53668  -0.48373  -0.47503  -0.45651  -0.38116
 Alpha  occ. eigenvalues --   -0.33459
 Alpha virt. eigenvalues --   -0.03377   0.05055   0.26111   0.31245   0.46438
 Alpha virt. eigenvalues --    0.47206   0.47636   0.58998   0.83686   0.94539
 Alpha virt. eigenvalues --    0.95291   1.04093   1.09810   1.11761   1.22097
 Alpha virt. eigenvalues --    1.26922   1.28250   1.33728   1.35488   1.37281
 Alpha virt. eigenvalues --    1.60397   1.64382   1.74448   1.76299   1.77699
 Alpha virt. eigenvalues --    1.79487   1.81365   1.85257   1.90569   1.92017
 Alpha virt. eigenvalues --    1.95793   2.08670   2.12392   2.54426   2.60078
 Alpha virt. eigenvalues --    2.71575   2.76056   2.96837   3.02904   3.06952
 Alpha virt. eigenvalues --    3.75632   4.15449   4.42978   4.61923
          Condensed to atoms (all electrons):
               1          2          3          4
     1  F    8.986151   0.303481  -0.064230  -0.029930
     2  C    0.303481   4.084343   0.543550   0.303481
     3  O   -0.064230   0.543550   7.959110  -0.064230
     4  F   -0.029930   0.303481  -0.064230   8.986151
 Mulliken charges:
               1
     1  F   -0.195472
     2  C    0.765144
     3  O   -0.374200
     4  F   -0.195472
 Sum of Mulliken charges =  -0.00000
 Mulliken charges with hydrogens summed into heavy atoms:
               1
     1  F   -0.195472
     2  C    0.765144
     3  O   -0.374200
     4  F   -0.195472
 Electronic spatial extent (au):  <R**2>=            203.4639
 Charge=             -0.0000 electrons
 Dipole moment (field-independent basis, Debye):
    X=             -0.0061    Y=             -1.5844    Z=              0.1113  Tot=              1.5883
 Quadrupole moment (field-independent basis, Debye-Ang):
   XX=            -20.3899   YY=            -22.4008   ZZ=            -18.4209
   XY=             -0.0073   XZ=              0.0063   YZ=              0.1273
 Traceless Quadrupole moment (field-independent basis, Debye-Ang):
   XX=              0.0140   YY=             -1.9969   ZZ=              1.9829
   XY=             -0.0073   XZ=              0.0063   YZ=              0.1273
 Octapole moment (field-independent basis, Debye-Ang**2):
  XXX=             -0.0092  YYY=             -5.7241  ZZZ=             -5.1196  XYY=             -0.0160
  XXY=             -0.7983  XXZ=             -1.9017  XZZ=             -0.0022  YZZ=             -0.8714
  YYZ=             -1.8746  XYZ=             -0.0001
 Hexadecapole moment (field-independent basis, Debye-Ang**3):
 XXXX=            -84.7830 YYYY=            -88.2502 ZZZZ=            -13.0369 XXXY=              0.0013
 XXXZ=              0.1158 YYYX=              0.0008 YYYZ=              2.2910 ZZZX=              0.1199
 ZZZY=              2.2795 XXYY=            -28.7914 XXZZ=            -16.5722 YYZZ=            -16.1707
 XXYZ=              0.7984 YYXZ=              0.0409 ZZXY=              0.0039
 N-N= 1.165552578429D+02 E-N=-9.744846037484D+02  KE= 3.104762453687D+02
 Calling FoFJK, ICntrl=      2127 FMM=F ISym2X=0 I1Cent= 0 IOpClX= 0 NMat=1 NMatS=1 NMatT=0.
 -------------------------------------------------------------------
 Center     Atomic                   Forces (Hartrees/Bohr)
 Number     Number              X              Y              Z
 -------------------------------------------------------------------
      1        9          -0.033902428   -0.017065258    0.001310591
      2        6           0.000340875    0.088393255   -0.006212141
      3        8          -0.000208170   -0.053987327    0.003792367
      4        9           0.033769723   -0.017340670    0.001109183
 -------------------------------------------------------------------
 Cartesian Forces:  Max     0.088393255 RMS     0.033746321
 TRJ-TRJ-TRJ-TRJ-TRJ-TRJ-TRJ-TRJ-TRJ-TRJ-TRJ-TRJ-TRJ-TRJ-TRJ-TRJ-TRJ-TRJ

 ADMP step      0
 Frobenius norm of [F,P] =     1.586363D-13
 Current gradient on entry to l121
 I=    1 X=   3.390242812539D-02 Y=   1.706525799136D-02 Z=  -1.310590705106D-03
 I=    2 X=  -3.408751671790D-04 Y=  -8.839325503031D-02 Z=   6.212140709864D-03
 I=    3 X=   2.081703607055D-04 Y=   5.398732729548D-02 Z=  -3.792367017442D-03
 I=    4 X=  -3.376972331895D-02 Y=   1.734066974345D-02 Z=  -1.109182987317D-03

 Summary information for step      0
 Time (fs)     0.000000
 EKinC      =      0.1000000; EKinPA =      0.0000000; EKinPB =      0.0000000
 EKin       =      0.1000000; EPot   =   -312.9959809; ETot   =   -312.8959809
 ETot-EKinP =   -312.8959809
 Integrand for the Velocity-Velocity Auto-Correlation  Function =   1.875165883249D-01
 Angular momentum
   JX =  0.2504866410D-14  JY =  0.3460725550D-14  JZ =  0.1447111189D-13
 Jtot =  0.1508854056D-13 H-BAR;  J (Quantum Number) =  0.0000000000D+00
 Total energy  -3.128959809D+02 A.U.
 Total angular momentum   1.508854D-14 h-bar
 Tr(PA)-NA =  2.132D-14
 Tr(PA**2-PA) =  6.395D-14
 Tr[(PA**2-PA)**2] =  2.652D-16
 Cartesian coordinates:
 I=    1 X=   2.184120529773D+00 Y=  -1.098513397182D+00 Z=   7.003492248841D-02
 I=    2 X=   6.364791439852D-04 Y=   1.650141814863D-01 Z=  -1.159368718830D-02
 I=    3 X=   9.504963846569D-03 Y=   2.464644579183D+00 Z=  -1.731501530296D-01
 I=    4 X=  -2.192524858969D+00 Y=  -1.080719735993D+00 Z=   8.306458411729D-02
 MW Cartesian velocity:
 I=    1 X=   1.432379001761D+14 Y=   6.230922842279D+12 Z=   3.533935118943D+13
 I=    2 X=   1.937900053289D+14 Y=  -8.136831197028D+13 Z=  -1.358879732048D+14
 I=    3 X=  -1.464980768582D+13 Y=   1.268074228720D+14 Z=   3.424261858561D+13
 I=    4 X=  -2.838110377324D+14 Y=  -5.791609523386D+13 Z=   4.123848932679D+13
 TRJ-TRJ-TRJ-TRJ-TRJ-TRJ-TRJ-TRJ-TRJ-TRJ-TRJ-TRJ-TRJ-TRJ-TRJ-TRJ-TRJ-TRJ
                          Input orientation:                          
 ---------------------------------------------------------------------
 Center     Atomic      Atomic             Coordinates (Angstroms)
 Number     Number       Type             X           Y           Z
 ---------------------------------------------------------------------
      1          9           0        1.157521   -0.581235    0.037490
      2          6           0        0.003297    0.086097   -0.008212
      3          8           0        0.004836    1.305903   -0.091173
      4          9           0       -1.163675   -0.572598    0.044457
 ---------------------------------------------------------------------
                    Distance matrix (angstroms):
                    1          2          3          4
     1  F    0.000000
     2  C    1.334037   0.000000
     3  O    2.215068   1.222625   0.000000
     4  F    2.321223   1.341073   2.216434   0.000000
 Symmetry turned off by external request.
 Stoichiometry    CF2O
 Framework group  C1[X(CF2O)]
 Deg. of freedom     6
 Full point group                 C1      NOp   1
 Rotational constants (GHZ):          12.5681283           9.8740110           5.5296877
 Standard basis: 6-31G(d) (6D, 7F)
    60 basis functions,   112 primitive gaussians,    60 cartesian basis functions
    16 alpha electrons       16 beta electrons
       nuclear repulsion energy       116.3604216088 Hartrees.
 NAtoms=    4 NActive=    4 NUniq=    4 SFac= 1.00D+00 NAtFMM=   60 NAOKFM=F Big=F
 Integral buffers will be    131072 words long.
 Raffenetti 2 integral format.
 Two-electron integral symmetry is turned off.
 One-electron integrals computed using PRISM.
 NBasis=    60 RedAO= T EigKep=  4.33D-03  NBF=    60
 NBsUse=    60 1.00D-06 EigRej= -1.00D+00 NBFU=    60
 Keep R1 ints in memory in canonical form, NReq=8755229.
 Requested convergence on RMS density matrix=1.00D-08 within 128 cycles.
 Requested convergence on MAX density matrix=1.00D-06.
 Requested convergence on             energy=1.00D-06.
 No special actions if energy rises.
 SCF Done:  E(RB3LYP) =  -312.994552333     A.U. after    1 cycles
            NFock=  1  Conv=0.20D+01     -V/T= 2.0083
 Calling FoFJK, ICntrl=      2127 FMM=F ISym2X=0 I1Cent= 0 IOpClX= 0 NMat=1 NMatS=1 NMatT=0.
 -------------------------------------------------------------------
 Center     Atomic                   Forces (Hartrees/Bohr)
 Number     Number              X              Y              Z
 -------------------------------------------------------------------
      1        9          -0.023431980   -0.025227896   -0.008638515
      2        6          -0.112208229    0.128667823    0.033209074
      3        8           0.026362696   -0.100758777   -0.012865106
      4        9           0.109277513   -0.002681151   -0.011705453
 -------------------------------------------------------------------
 Cartesian Forces:  Max     0.128667823 RMS     0.067458432
 TRJ-TRJ-TRJ-TRJ-TRJ-TRJ-TRJ-TRJ-TRJ-TRJ-TRJ-TRJ-TRJ-TRJ-TRJ-TRJ-TRJ-TRJ

 ADMP step      1
 Frobenius norm of [F,P] =     6.755543D-02
 Current gradient on entry to l121
 I=    1 X=   2.343198034149D-02 Y=   2.522789580190D-02 Z=   8.638514876391D-03
 I=    2 X=   1.122082287817D-01 Y=  -1.286678233579D-01 Z=  -3.320907402851D-02
 I=    3 X=  -2.636269607360D-02 Y=   1.007587768087D-01 Z=   1.286510571299D-02
 I=    4 X=  -1.092775130497D-01 Y=   2.681150747229D-03 Z=   1.170545343913D-02

 Summary information for step      1
 Time (fs)     0.100000
 EKinC      =      0.0985772; EKinPA =      0.0000268; EKinPB =      0.0000268
 EKin       =      0.0986309; EPot   =   -312.9945523; ETot   =   -312.8959214
 ETot-EKinP =   -312.8959751
 Adiabaticity Index =    3.6261D-27
 Total Fictitiious Kinetic Energy =      0.0005370
 Integrand for the Velocity-Velocity Auto-Correlation  Function =   1.861738988520D-01
 Angular momentum
   JX =  0.9789141615D-14  JY = -0.2450056679D-14  JZ =  0.1401360468D-15
 Jtot =  0.1009206170D-13 H-BAR;  J (Quantum Number) =  0.0000000000D+00
 Total energy  -3.128959214D+02  Delta-E   5.948319D-05 A.U.
 Total angular momentum   1.009206D-14  Delta-A  -4.996479D-15 h-bar
 Tr(PA)-NA =  3.553D-15
 Tr(PA**2-PA) =  5.329D-14
 Tr[(PA**2-PA)**2] =  2.086D-16
 Cartesian coordinates:
 I=    1 X=   2.187398405123D+00 Y=  -1.098374654932D+00 Z=   7.084602012655D-02
 I=    2 X=   6.230847897907D-03 Y=   1.626998123161D-01 Z=  -1.551886190571D-02
 I=    3 X=   9.138599446932D-03 Y=   2.467799445669D+00 Z=  -1.722928396483D-01
 I=    4 X=  -2.199027871555D+00 Y=  -1.082052757035D+00 Z=   8.401097324345D-02
 MW Cartesian velocity:
 I=    1 X=   1.426239666393D+14 Y=   5.778855982138D+12 Z=   3.522850604607D+13
 I=    2 X=   1.922759686225D+14 Y=  -7.843064068103D+13 Z=  -1.355212396235D+14
 I=    3 X=  -1.434901126664D+13 Y=   1.249975371369D+14 Z=   3.419332127250D+13
 I=    4 X=  -2.822698167215D+14 Y=  -5.813808000896D+13 Z=   4.110310495389D+13
 TRJ-TRJ-TRJ-TRJ-TRJ-TRJ-TRJ-TRJ-TRJ-TRJ-TRJ-TRJ-TRJ-TRJ-TRJ-TRJ-TRJ-TRJ
                          Input orientation:                          
 ---------------------------------------------------------------------
 Center     Atomic      Atomic             Coordinates (Angstroms)
 Number     Number       Type             X           Y           Z
 ---------------------------------------------------------------------
      1          9           0        1.159250   -0.581168    0.037916
      2          6           0        0.006211    0.084926   -0.010276
      3          8           0        0.004650    1.307542   -0.090722
      4          9           0       -1.167088   -0.573304    0.044954
 ---------------------------------------------------------------------
                    Distance matrix (angstroms):
                    1          2          3          4
     1  F    0.000000
     2  C    1.332479   0.000000
     3  O    2.217402   1.225261   0.000000
     4  F    2.326362   1.346457   2.220126   0.000000
 Symmetry turned off by external request.
 Stoichiometry    CF2O
 Framework group  C1[X(CF2O)]
 Deg. of freedom     6
 Full point group                 C1      NOp   1
 Rotational constants (GHZ):          12.5430145           9.8302651           5.5111224
 Standard basis: 6-31G(d) (6D, 7F)
    60 basis functions,   112 primitive gaussians,    60 cartesian basis functions
    16 alpha electrons       16 beta electrons
       nuclear repulsion energy       116.1680881958 Hartrees.
 NAtoms=    4 NActive=    4 NUniq=    4 SFac= 1.00D+00 NAtFMM=   60 NAOKFM=F Big=F
 Integral buffers will be    131072 words long.
 Raffenetti 2 integral format.
 Two-electron integral symmetry is turned off.
 One-electron integrals computed using PRISM.
 NBasis=    60 RedAO= T EigKep=  4.33D-03  NBF=    60
 NBsUse=    60 1.00D-06 EigRej= -1.00D+00 NBFU=    60
 Keep R1 ints in memory in canonical form, NReq=8755229.
 Requested convergence on RMS density matrix=1.00D-08 within 128 cycles.
 Requested convergence on MAX density matrix=1.00D-06.
 Requested convergence on             energy=1.00D-06.
 No special actions if energy rises.
 SCF Done:  E(RB3LYP) =  -312.992424535     A.U. after    1 cycles
            NFock=  1  Conv=0.20D+01     -V/T= 2.0084
 Calling FoFJK, ICntrl=      2127 FMM=F ISym2X=0 I1Cent= 0 IOpClX= 0 NMat=1 NMatS=1 NMatT=0.
 -------------------------------------------------------------------
 Center     Atomic                   Forces (Hartrees/Bohr)
 Number     Number              X              Y              Z
 -------------------------------------------------------------------
      1        9          -0.016149149   -0.030635454   -0.016159730
      2        6          -0.189304856    0.156809170    0.063476664
      3        8           0.045094158   -0.133552225   -0.025861562
      4        9           0.160359847    0.007378509   -0.021455373
 -------------------------------------------------------------------
 Cartesian Forces:  Max     0.189304856 RMS     0.096903625
 TRJ-TRJ-TRJ-TRJ-TRJ-TRJ-TRJ-TRJ-TRJ-TRJ-TRJ-TRJ-TRJ-TRJ-TRJ-TRJ-TRJ-TRJ

 ADMP step      2
 Frobenius norm of [F,P] =     1.108370D-01
 Current gradient on entry to l121
 I=    1 X=   1.614914864841D-02 Y=   3.063545386783D-02 Z=   1.615973004515D-02
 I=    2 X=   1.893048562717D-01 Y=  -1.568091700363D-01 Z=  -6.347666446257D-02
 I=    3 X=  -4.509415779411D-02 Y=   1.335522247110D-01 Z=   2.586156159698D-02
 I=    4 X=  -1.603598471261D-01 Y=  -7.378508542635D-03 Z=   2.145537282045D-02

 Summary information for step      2
 Time (fs)     0.200000
 EKinC      =      0.0958903; EKinPA =      0.0003554; EKinPB =      0.0003554
 EKin       =      0.0966012; EPot   =   -312.9924245; ETot   =   -312.8958233
 ETot-EKinP =   -312.8965342
 Adiabaticity Index =    8.5676D-04
 Integrand for the Velocity-Velocity Auto-Correlation  Function =   1.836009599528D-01
 Angular momentum
   JX =  0.2447663945D-14  JY =  0.5495982208D-17  JZ = -0.8389348778D-17
 Jtot =  0.2447684493D-14 H-BAR;  J (Quantum Number) =  0.0000000000D+00
 Total energy  -3.128958233D+02  Delta-E   9.807326D-05 A.U.
 Total angular momentum   2.447684D-15  Delta-A  -7.644377D-15 h-bar
 Tr(PA)-NA = -3.553D-15
 Tr(PA**2-PA) = -1.042D-10
 Tr[(PA**2-PA)**2] =  9.066D-13
 Cartesian coordinates:
 I=    1 X=   2.190664841164D+00 Y=  -1.098248233942D+00 Z=   7.165138512672D-02
 I=    2 X=   1.173753736828D-02 Y=   1.604859863353D-01 Z=  -1.941800960605D-02
 I=    3 X=   8.787399240601D-03 Y=   2.470895449492D+00 Z=  -1.714402152053D-01
 I=    4 X=  -2.205476830649D+00 Y=  -1.083387406148D+00 Z=   8.495060316645D-02
 MW Cartesian velocity:
 I=    1 X=   1.422066401877D+14 Y=   5.187326786706D+12 Z=   3.487306500117D+13
 I=    2 X=   1.881951621454D+14 Y=  -7.456651496360D+13 Z=  -1.342091029202D+14
 I=    3 X=  -1.352925623186D+13 Y=   1.222620137428D+14 Z=   3.389716283966D+13
 I=    4 X=  -2.793614287159D+14 Y=  -5.810758064759D+13 Z=   4.068746350902D+13
 TRJ-TRJ-TRJ-TRJ-TRJ-TRJ-TRJ-TRJ-TRJ-TRJ-TRJ-TRJ-TRJ-TRJ-TRJ-TRJ-TRJ-TRJ
                          Input orientation:                          
 ---------------------------------------------------------------------
 Center     Atomic      Atomic             Coordinates (Angstroms)
 Number     Number       Type             X           Y           Z
 ---------------------------------------------------------------------
      1          9           0        1.160974   -0.581109    0.038337
      2          6           0        0.009047    0.083819   -0.012313
      3          8           0        0.004478    1.309139   -0.090276
      4          9           0       -1.170459   -0.574009    0.045445
 ---------------------------------------------------------------------
                    Distance matrix (angstroms):
                    1          2          3          4
     1  F    0.000000
     2  C    1.331026   0.000000
     3  O    2.219698   1.227806   0.000000
     4  F    2.331455   1.351779   2.223767   0.000000
 Symmetry turned off by external request.
 Stoichiometry    CF2O
 Framework group  C1[X(CF2O)]
 Deg. of freedom     6
 Full point group                 C1      NOp   1
 Rotational constants (GHZ):          12.5184391           9.7870888           5.4928388
 Standard basis: 6-31G(d) (6D, 7F)
    60 basis functions,   112 primitive gaussians,    60 cartesian basis functions
    16 alpha electrons       16 beta electrons
       nuclear repulsion energy       115.9788513640 Hartrees.
 NAtoms=    4 NActive=    4 NUniq=    4 SFac= 1.00D+00 NAtFMM=   60 NAOKFM=F Big=F
 Integral buffers will be    131072 words long.
 Raffenetti 2 integral format.
 Two-electron integral symmetry is turned off.
 One-electron integrals computed using PRISM.
 NBasis=    60 RedAO= T EigKep=  4.34D-03  NBF=    60
 NBsUse=    60 1.00D-06 EigRej= -1.00D+00 NBFU=    60
 Keep R1 ints in memory in canonical form, NReq=8755229.
 Requested convergence on RMS density matrix=1.00D-08 within 128 cycles.
 Requested convergence on MAX density matrix=1.00D-06.
 Requested convergence on             energy=1.00D-06.
 No special actions if energy rises.
 SCF Done:  E(RB3LYP) =  -312.991020499     A.U. after    1 cycles
            NFock=  1  Conv=0.20D+01     -V/T= 2.0084
 Calling FoFJK, ICntrl=      2127 FMM=F ISym2X=0 I1Cent= 0 IOpClX= 0 NMat=1 NMatS=1 NMatT=0.
 -------------------------------------------------------------------
 Center     Atomic                   Forces (Hartrees/Bohr)
 Number     Number              X              Y              Z
 -------------------------------------------------------------------
      1        9          -0.014449766   -0.031646253   -0.019498206
      2        6          -0.210072381    0.165554315    0.077724033
      3        8           0.050639208   -0.144733131   -0.032296214
      4        9           0.173882939    0.010825069   -0.025929613
 -------------------------------------------------------------------
 Cartesian Forces:  Max     0.210072381 RMS     0.105967755
 TRJ-TRJ-TRJ-TRJ-TRJ-TRJ-TRJ-TRJ-TRJ-TRJ-TRJ-TRJ-TRJ-TRJ-TRJ-TRJ-TRJ-TRJ

 ADMP step      3
 Frobenius norm of [F,P] =     1.171349D-01
 Current gradient on entry to l121
 I=    1 X=   1.444976610175D-02 Y=   3.164625332055D-02 Z=   1.949820607287D-02
 I=    2 X=   2.100723806302D-01 Y=  -1.655543152838D-01 Z=  -7.772403290887D-02
 I=    3 X=  -5.063920796734D-02 Y=   1.447331309311D-01 Z=   3.229621407881D-02
 I=    4 X=  -1.738829387646D-01 Y=  -1.082506896789D-02 Z=   2.592961275719D-02

 Summary information for step      3
 Time (fs)     0.300000
 EKinC      =      0.0925884; EKinPA =      0.0013153; EKinPB =      0.0013153
 EKin       =      0.0952190; EPot   =   -312.9910205; ETot   =   -312.8958015
 ETot-EKinP =   -312.8984320
 Adiabaticity Index =    3.7806D-03
 Integrand for the Velocity-Velocity Auto-Correlation  Function =   1.803692675361D-01
 Angular momentum
   JX = -0.1210419722D-14  JY = -0.2448038335D-14  JZ =  0.1759023182D-15
 Jtot =  0.2736594457D-14 H-BAR;  J (Quantum Number) =  0.0000000000D+00
 Total energy  -3.128958015D+02  Delta-E   2.184964D-05 A.U.
 Total angular momentum   2.736594D-15  Delta-A   2.889100D-16 h-bar
 Tr(PA)-NA = -5.329D-15
 Tr(PA**2-PA) =  7.466D-11
 Tr[(PA**2-PA)**2] =  6.491D-13
 Cartesian coordinates:
 I=    1 X=   2.193923567458D+00 Y=  -1.098136634054D+00 Z=   7.244617332589D-02
 I=    2 X=   1.709630065039D-02 Y=   1.583947125674D-01 Z=  -2.326742807557D-02
 I=    3 X=   8.462029107927D-03 Y=   2.473913518066D+00 Z=  -1.705977120994D-01
 I=    4 X=  -2.211846391634D+00 Y=  -1.084719027725D+00 Z=   8.587792055378D-02
 MW Cartesian velocity:
 I=    1 X=   1.418912355905D+14 Y=   4.533800261877D+12 Z=   3.436293083494D+13
 I=    2 X=   1.827896628432D+14 Y=  -7.020245123667D+13 Z=  -1.322933069676D+14
 I=    3 X=  -1.243625286685D+13 Y=   1.190154366274D+14 Z=   3.343805045259D+13
 I=    4 X=  -2.757528797677D+14 Y=  -5.794349086664D+13 Z=   4.009627462164D+13
 TRJ-TRJ-TRJ-TRJ-TRJ-TRJ-TRJ-TRJ-TRJ-TRJ-TRJ-TRJ-TRJ-TRJ-TRJ-TRJ-TRJ-TRJ
                          Input orientation:                          
 ---------------------------------------------------------------------
 Center     Atomic      Atomic             Coordinates (Angstroms)
 Number     Number       Type             X           Y           Z
 ---------------------------------------------------------------------
      1          9           0        1.162695   -0.581058    0.038751
      2          6           0        0.011796    0.082781   -0.014317
      3          8           0        0.004321    1.310691   -0.089837
      4          9           0       -1.173784   -0.574711    0.045928
 ---------------------------------------------------------------------
                    Distance matrix (angstroms):
                    1          2          3          4
     1  F    0.000000
     2  C    1.329687   0.000000
     3  O    2.221954   1.230253   0.000000
     4  F    2.336499   1.357027   2.227353   0.000000
 Symmetry turned off by external request.
 Stoichiometry    CF2O
 Framework group  C1[X(CF2O)]
 Deg. of freedom     6
 Full point group                 C1      NOp   1
 Rotational constants (GHZ):          12.4944436           9.7445090           5.4748524
 Standard basis: 6-31G(d) (6D, 7F)
    60 basis functions,   112 primitive gaussians,    60 cartesian basis functions
    16 alpha electrons       16 beta electrons
       nuclear repulsion energy       115.7928677609 Hartrees.
 NAtoms=    4 NActive=    4 NUniq=    4 SFac= 1.00D+00 NAtFMM=   60 NAOKFM=F Big=F
 Integral buffers will be    131072 words long.
 Raffenetti 2 integral format.
 Two-electron integral symmetry is turned off.
 One-electron integrals computed using PRISM.
 NBasis=    60 RedAO= T EigKep=  4.35D-03  NBF=    60
 NBsUse=    60 1.00D-06 EigRej= -1.00D+00 NBFU=    60
 Keep R1 ints in memory in canonical form, NReq=8755229.
 Requested convergence on RMS density matrix=1.00D-08 within 128 cycles.
 Requested convergence on MAX density matrix=1.00D-06.
 Requested convergence on             energy=1.00D-06.
 No special actions if energy rises.
 SCF Done:  E(RB3LYP) =  -312.990665218     A.U. after    1 cycles
            NFock=  1  Conv=0.20D+01     -V/T= 2.0084
 Calling FoFJK, ICntrl=      2127 FMM=F ISym2X=0 I1Cent= 0 IOpClX= 0 NMat=1 NMatS=1 NMatT=0.
 -------------------------------------------------------------------
 Center     Atomic                   Forces (Hartrees/Bohr)
 Number     Number              X              Y              Z
 -------------------------------------------------------------------
      1        9          -0.018689512   -0.028218621   -0.018103558
      2        6          -0.173824636    0.153778427    0.073534723
      3        8           0.042128466   -0.133560398   -0.031010788
      4        9           0.150385682    0.008000592   -0.024420376
 -------------------------------------------------------------------
 Cartesian Forces:  Max     0.173824636 RMS     0.093360665
 TRJ-TRJ-TRJ-TRJ-TRJ-TRJ-TRJ-TRJ-TRJ-TRJ-TRJ-TRJ-TRJ-TRJ-TRJ-TRJ-TRJ-TRJ

 ADMP step      4
 Frobenius norm of [F,P] =     9.096243D-02
 Current gradient on entry to l121
 I=    1 X=   1.868951158206D-02 Y=   2.821862091128D-02 Z=   1.810355849660D-02
 I=    2 X=   1.738246361357D-01 Y=  -1.537784268287D-01 Z=  -7.353472252862D-02
 I=    3 X=  -4.212846608144D-02 Y=   1.335603977544D-01 Z=   3.101078763678D-02
 I=    4 X=  -1.503856816363D-01 Y=  -8.000591837007D-03 Z=   2.442037639524D-02

 Summary information for step      4
 Time (fs)     0.400000
 EKinC      =      0.0894165; EKinPA =      0.0026939; EKinPB =      0.0026939
 EKin       =      0.0948043; EPot   =   -312.9906652; ETot   =   -312.8958609
 ETot-EKinP =   -312.9012488
 Adiabaticity Index =    6.6708D-03
 Integrand for the Velocity-Velocity Auto-Correlation  Function =   1.771857809908D-01
 Angular momentum
   JX = -0.8512530019D-14  JY = -0.1330619516D-13  JZ = -0.1375988472D-13
 Jtot =  0.2094880484D-13 H-BAR;  J (Quantum Number) =  0.0000000000D+00
 Total energy  -3.128958609D+02  Delta-E  -5.945065D-05 A.U.
 Total angular momentum   2.094880D-14  Delta-A   1.821221D-14 h-bar
 Tr(PA)-NA =  3.553D-15
 Tr(PA**2-PA) =  1.034D-10
 Tr[(PA**2-PA)**2] =  8.986D-13
 Cartesian coordinates:
 I=    1 X=   2.197175531135D+00 Y=  -1.098040200178D+00 Z=   7.322813078164D-02
 I=    2 X=   2.229090347304D-02 Y=   1.564328459234D-01 Z=  -2.705596724503D-02
 I=    3 X=   8.165487756786D-03 Y=   2.476847167230D+00 Z=  -1.697680469248D-01
 I=    4 X=  -2.218129772189D+00 Y=  -1.086046147566D+00 Z=   8.679042373041D-02
 MW Cartesian velocity:
 I=    1 X=   1.415514294223D+14 Y=   3.910579470884D+12 Z=   3.381855107464D+13
 I=    2 X=   1.775934562248D+14 Y=  -6.587880847236D+13 Z=  -1.302413632366D+14
 I=    3 X=  -1.138423154620D+13 Y=   1.157697564842D+14 Z=   3.293480843902D+13
 I=    4 X=  -2.722486618909D+14 Y=  -5.777840516789D+13 Z=   3.947161888680D+13
 TRJ-TRJ-TRJ-TRJ-TRJ-TRJ-TRJ-TRJ-TRJ-TRJ-TRJ-TRJ-TRJ-TRJ-TRJ-TRJ-TRJ-TRJ
                          Input orientation:                          
 ---------------------------------------------------------------------
 Center     Atomic      Atomic             Coordinates (Angstroms)
 Number     Number       Type             X           Y           Z
 ---------------------------------------------------------------------
      1          9           0        1.164411   -0.581014    0.039158
      2          6           0        0.014473    0.081806   -0.016292
      3          8           0        0.004177    1.312202   -0.089405
      4          9           0       -1.177069   -0.575412    0.046403
 ---------------------------------------------------------------------
                    Distance matrix (angstroms):
                    1          2          3          4
     1  F    0.000000
     2  C    1.328444   0.000000
     3  O    2.224172   1.232610   0.000000
     4  F    2.341499   1.362218   2.230890   0.000000
 Symmetry turned off by external request.
 Stoichiometry    CF2O
 Framework group  C1[X(CF2O)]
 Deg. of freedom     6
 Full point group                 C1      NOp   1
 Rotational constants (GHZ):          12.4709822           9.7024823           5.4571400
 Standard basis: 6-31G(d) (6D, 7F)
    60 basis functions,   112 primitive gaussians,    60 cartesian basis functions
    16 alpha electrons       16 beta electrons
       nuclear repulsion energy       115.6098722390 Hartrees.
 NAtoms=    4 NActive=    4 NUniq=    4 SFac= 1.00D+00 NAtFMM=   60 NAOKFM=F Big=F
 Integral buffers will be    131072 words long.
 Raffenetti 2 integral format.
 Two-electron integral symmetry is turned off.
 One-electron integrals computed using PRISM.
 NBasis=    60 RedAO= T EigKep=  4.35D-03  NBF=    60
 NBsUse=    60 1.00D-06 EigRej= -1.00D+00 NBFU=    60
 Keep R1 ints in memory in canonical form, NReq=8755229.
 Requested convergence on RMS density matrix=1.00D-08 within 128 cycles.
 Requested convergence on MAX density matrix=1.00D-06.
 Requested convergence on             energy=1.00D-06.
 No special actions if energy rises.
 SCF Done:  E(RB3LYP) =  -312.990488690     A.U. after    1 cycles
            NFock=  1  Conv=0.20D+01     -V/T= 2.0083
 Calling FoFJK, ICntrl=      2127 FMM=F ISym2X=0 I1Cent= 0 IOpClX= 0 NMat=1 NMatS=1 NMatT=0.
 -------------------------------------------------------------------
 Center     Atomic                   Forces (Hartrees/Bohr)
 Number     Number              X              Y              Z
 -------------------------------------------------------------------
      1        9          -0.027109423   -0.021851551   -0.012736537
      2        6          -0.099028091    0.126650841    0.053509535
      3        8           0.023273855   -0.106029153   -0.022878405
      4        9           0.102863658    0.001229863   -0.017894594
 -------------------------------------------------------------------
 Cartesian Forces:  Max     0.126650841 RMS     0.066642601
 TRJ-TRJ-TRJ-TRJ-TRJ-TRJ-TRJ-TRJ-TRJ-TRJ-TRJ-TRJ-TRJ-TRJ-TRJ-TRJ-TRJ-TRJ

 ADMP step      5
 Frobenius norm of [F,P] =     6.038806D-02
 Current gradient on entry to l121
 I=    1 X=   2.710942253796D-02 Y=   2.185155138938D-02 Z=   1.273653672232D-02
 I=    2 X=   9.902809106656D-02 Y=  -1.266508413669D-01 Z=  -5.350953545206D-02
 I=    3 X=  -2.327385525662D-02 Y=   1.060291527072D-01 Z=   2.287840487451D-02
 I=    4 X=  -1.028636583479D-01 Y=  -1.229862729673D-03 Z=   1.789459385524D-02

 Summary information for step      5
 Time (fs)     0.500000
 EKinC      =      0.0869553; EKinPA =      0.0038108; EKinPB =      0.0038108
 EKin       =      0.0945768; EPot   =   -312.9904887; ETot   =   -312.8959119
 ETot-EKinP =   -312.9035334
 Adiabaticity Index =    6.6880D-03
 Integrand for the Velocity-Velocity Auto-Correlation  Function =   1.746567493480D-01
 Angular momentum
   JX = -0.6004831642D-14  JY = -0.6705255242D-14  JZ =  0.1030559458D-13
 Jtot =  0.1368297228D-13 H-BAR;  J (Quantum Number) =  0.0000000000D+00
 Total energy  -3.128959119D+02  Delta-E  -5.093951D-05 A.U.
 Total angular momentum   1.368297D-14  Delta-A  -7.265833D-15 h-bar
 Tr(PA)-NA = -5.329D-15
 Tr(PA**2-PA) = -4.723D-11
 Tr[(PA**2-PA)**2] =  4.114D-13
 Cartesian coordinates:
 I=    1 X=   2.200418665399D+00 Y=  -1.097957196822D+00 Z=   7.399794007474D-02
 I=    2 X=   2.734966362616D-02 Y=   1.545911977869D-01 Z=  -3.078691668800D-02
 I=    3 X=   7.892727051368D-03 Y=   2.479702926002D+00 Z=  -1.689507099192D-01
 I=    4 X=  -2.224338541875D+00 Y=  -1.087370194173D+00 Z=   8.768907874256D-02
 MW Cartesian velocity:
 I=    1 X=   1.410737346584D+14 Y=   3.390288539729D+12 Z=   3.335869587974D+13
 I=    2 X=   1.739000125857D+14 Y=  -6.208154534114D+13 Z=  -1.285181270901D+14
 I=    3 X=  -1.064928385357D+13 Y=   1.129754001912D+14 Z=   3.250938111761D+13
 I=    4 X=  -2.695099478213D+14 Y=  -5.771202238395D+13 Z=   3.895228055294D+13
 TRJ-TRJ-TRJ-TRJ-TRJ-TRJ-TRJ-TRJ-TRJ-TRJ-TRJ-TRJ-TRJ-TRJ-TRJ-TRJ-TRJ-TRJ
                          Input orientation:                          
 ---------------------------------------------------------------------
 Center     Atomic      Atomic             Coordinates (Angstroms)
 Number     Number       Type             X           Y           Z
 ---------------------------------------------------------------------
      1          9           0        1.166121   -0.580976    0.039561
      2          6           0        0.017109    0.080884   -0.018244
      3          8           0        0.004039    1.313681   -0.088977
      4          9           0       -1.180328   -0.576112    0.046873
 ---------------------------------------------------------------------
                    Distance matrix (angstroms):
                    1          2          3          4
     1  F    0.000000
     2  C    1.327263   0.000000
     3  O    2.226360   1.234893   0.000000
     4  F    2.346465   1.367384   2.234390   0.000000
 Symmetry turned off by external request.
 Stoichiometry    CF2O
 Framework group  C1[X(CF2O)]
 Deg. of freedom     6
 Full point group                 C1      NOp   1
 Rotational constants (GHZ):          12.4479474           9.6609198           5.4396522
 Standard basis: 6-31G(d) (6D, 7F)
    60 basis functions,   112 primitive gaussians,    60 cartesian basis functions
    16 alpha electrons       16 beta electrons
       nuclear repulsion energy       115.4293225695 Hartrees.
 NAtoms=    4 NActive=    4 NUniq=    4 SFac= 1.00D+00 NAtFMM=   60 NAOKFM=F Big=F
 Integral buffers will be    131072 words long.
 Raffenetti 2 integral format.
 Two-electron integral symmetry is turned off.
 One-electron integrals computed using PRISM.
 NBasis=    60 RedAO= T EigKep=  4.36D-03  NBF=    60
 NBsUse=    60 1.00D-06 EigRej= -1.00D+00 NBFU=    60
 Keep R1 ints in memory in canonical form, NReq=8755229.
 Requested convergence on RMS density matrix=1.00D-08 within 128 cycles.
 Requested convergence on MAX density matrix=1.00D-06.
 Requested convergence on             energy=1.00D-06.
 No special actions if energy rises.
 SCF Done:  E(RB3LYP) =  -312.989716073     A.U. after    1 cycles
            NFock=  1  Conv=0.20D+01     -V/T= 2.0083
 Calling FoFJK, ICntrl=      2127 FMM=F ISym2X=0 I1Cent= 0 IOpClX= 0 NMat=1 NMatS=1 NMatT=0.
 -------------------------------------------------------------------
 Center     Atomic                   Forces (Hartrees/Bohr)
 Number     Number              X              Y              Z
 -------------------------------------------------------------------
      1        9          -0.036639968   -0.014889326   -0.005189551
      2        6          -0.014973299    0.093586372    0.024260675
      3        8           0.000783329   -0.072516277   -0.010458798
      4        9           0.050829939   -0.006180769   -0.008612326
 -------------------------------------------------------------------
 Cartesian Forces:  Max     0.093586372 RMS     0.040028081
 TRJ-TRJ-TRJ-TRJ-TRJ-TRJ-TRJ-TRJ-TRJ-TRJ-TRJ-TRJ-TRJ-TRJ-TRJ-TRJ-TRJ-TRJ

 ADMP step      6
 Frobenius norm of [F,P] =     7.095472D-02
 Current gradient on entry to l121
 I=    1 X=   3.663996797431D-02 Y=   1.488932582570D-02 Z=   5.189550948669D-03
 I=    2 X=   1.497329940886D-02 Y=  -9.358637212566D-02 Z=  -2.426067500735D-02
 I=    3 X=  -7.833286207525D-04 Y=   7.251627723049D-02 Z=   1.045879765378D-02
 I=    4 X=  -5.082993876237D-02 Y=   6.180769069442D-03 Z=   8.612326404901D-03

 Summary information for step      6
 Time (fs)     0.600000
 EKinC      =      0.0854751; EKinPA =      0.0041696; EKinPB =      0.0041696
 EKin       =      0.0938143; EPot   =   -312.9897161; ETot   =   -312.8959017
 ETot-EKinP =   -312.9042410
 Adiabaticity Index =    3.8007D-03
 Integrand for the Velocity-Velocity Auto-Correlation  Function =   1.731047799666D-01
 Angular momentum
   JX = -0.3487272847D-14  JY = -0.8786891180D-14  JZ =  0.1535089143D-13
 Jtot =  0.1802832206D-13 H-BAR;  J (Quantum Number) =  0.0000000000D+00
 Total energy  -3.128959017D+02  Delta-E   1.013864D-05 A.U.
 Total angular momentum   1.802832D-14  Delta-A   4.345350D-15 h-bar
 Tr(PA)-NA = -3.553D-15
 Tr(PA**2-PA) = -5.072D-11
 Tr[(PA**2-PA)**2] =  4.407D-13
 Cartesian coordinates:
 I=    1 X=   2.203648710016D+00 Y=  -1.097884636534D+00 Z=   7.475879704043D-02
 I=    2 X=   3.233102538088D-02 Y=   1.528485662320D-01 Z=  -3.447596477215D-02
 I=    3 X=   7.632938926053D-03 Y=   2.482496835142D+00 Z=  -1.681423194918D-01
 I=    4 X=  -2.230496256330D+00 Y=  -1.088694268035D+00 Z=   8.857775204085D-02
 MW Cartesian velocity:
 I=    1 X=   1.403954406045D+14 Y=   3.001859311911D+12 Z=   3.307049577704D+13
 I=    2 X=   1.723565671302D+14 Y=  -5.909945920247D+13 Z=  -1.274633801712D+14
 I=    3 X=  -1.038287502110D+13 Y=   1.108917373893D+14 Z=   3.225488818674D+13
 I=    4 X=  -2.678494410830D+14 Y=  -5.778173792390D+13 Z=   3.863572900368D+13
 TRJ-TRJ-TRJ-TRJ-TRJ-TRJ-TRJ-TRJ-TRJ-TRJ-TRJ-TRJ-TRJ-TRJ-TRJ-TRJ-TRJ-TRJ
                          Input orientation:                          
 ---------------------------------------------------------------------
 Center     Atomic      Atomic             Coordinates (Angstroms)
 Number     Number       Type             X           Y           Z
 ---------------------------------------------------------------------
      1          9           0        1.167820   -0.580941    0.039961
      2          6           0        0.019739    0.080001   -0.020186
      3          8           0        0.003902    1.315137   -0.088551
      4          9           0       -1.183573   -0.576815    0.047341
 ---------------------------------------------------------------------
                    Distance matrix (angstroms):
                    1          2          3          4
     1  F    0.000000
     2  C    1.326104   0.000000
     3  O    2.228527   1.237128   0.000000
     4  F    2.351409   1.372561   2.237866   0.000000
 Symmetry turned off by external request.
 Stoichiometry    CF2O
 Framework group  C1[X(CF2O)]
 Deg. of freedom     6
 Full point group                 C1      NOp   1
 Rotational constants (GHZ):          12.4252100           9.6197240           5.4223335
 Standard basis: 6-31G(d) (6D, 7F)
    60 basis functions,   112 primitive gaussians,    60 cartesian basis functions
    16 alpha electrons       16 beta electrons
       nuclear repulsion energy       115.2506119708 Hartrees.
 NAtoms=    4 NActive=    4 NUniq=    4 SFac= 1.00D+00 NAtFMM=   60 NAOKFM=F Big=F
 Integral buffers will be    131072 words long.
 Raffenetti 2 integral format.
 Two-electron integral symmetry is turned off.
 One-electron integrals computed using PRISM.
 NBasis=    60 RedAO= T EigKep=  4.36D-03  NBF=    60
 NBsUse=    60 1.00D-06 EigRej= -1.00D+00 NBFU=    60
 Keep R1 ints in memory in canonical form, NReq=8755229.
 Requested convergence on RMS density matrix=1.00D-08 within 128 cycles.
 Requested convergence on MAX density matrix=1.00D-06.
 Requested convergence on             energy=1.00D-06.
 No special actions if energy rises.
 SCF Done:  E(RB3LYP) =  -312.988458811     A.U. after    1 cycles
            NFock=  1  Conv=0.20D+01     -V/T= 2.0083
 Calling FoFJK, ICntrl=      2127 FMM=F ISym2X=0 I1Cent= 0 IOpClX= 0 NMat=1 NMatS=1 NMatT=0.
 -------------------------------------------------------------------
 Center     Atomic                   Forces (Hartrees/Bohr)
 Number     Number              X              Y              Z
 -------------------------------------------------------------------
      1        9          -0.044100396   -0.009588070    0.002292291
      2        6           0.049863644    0.064965714   -0.005752798
      3        8          -0.018137064   -0.044143377    0.002818849
      4        9           0.012373816   -0.011234267    0.000641658
 -------------------------------------------------------------------
 Cartesian Forces:  Max     0.064965714 RMS     0.030750773
 TRJ-TRJ-TRJ-TRJ-TRJ-TRJ-TRJ-TRJ-TRJ-TRJ-TRJ-TRJ-TRJ-TRJ-TRJ-TRJ-TRJ-TRJ

 ADMP step      7
 Frobenius norm of [F,P] =     9.801322D-02
 Current gradient on entry to l121
 I=    1 X=   4.410039617260D-02 Y=   9.588069792303D-03 Z=  -2.292290827623D-03
 I=    2 X=  -4.986364395638D-02 Y=  -6.496571372400D-02 Z=   5.752797705839D-03
 I=    3 X=   1.813706376571D-02 Y=   4.414337684109D-02 Z=  -2.818848510002D-03
 I=    4 X=  -1.237381598192D-02 Y=   1.123426709055D-02 Z=  -6.416583682164D-04

 Summary information for step      7
 Time (fs)     0.700000
 EKinC      =      0.0849164; EKinPA =      0.0038389; EKinPB =      0.0038389
 EKin       =      0.0925942; EPot   =   -312.9884588; ETot   =   -312.8958647
 ETot-EKinP =   -312.9035424
 Adiabaticity Index =    4.4679D-04
 Integrand for the Velocity-Velocity Auto-Correlation  Function =   1.725016754613D-01
 Angular momentum
   JX = -0.8436344614D-14  JY = -0.3992576034D-14  JZ =  0.1503081846D-13
 Jtot =  0.1769288211D-13 H-BAR;  J (Quantum Number) =  0.0000000000D+00
 Total energy  -3.128958647D+02  Delta-E   3.706740D-05 A.U.
 Total angular momentum   1.769288D-14  Delta-A  -3.354399D-16 h-bar
 Tr(PA)-NA = -1.776D-15
 Tr(PA**2-PA) = -4.692D-11
 Tr[(PA**2-PA)**2] =  4.075D-13
 Cartesian coordinates:
 I=    1 X=   2.206860720706D+00 Y=  -1.097819456283D+00 Z=   7.551538225023D-02
 I=    2 X=   3.730067466908D-02 Y=   1.511790889189D-01 Z=  -3.814601837337D-02
 I=    3 X=   7.373500779614D-03 Y=   2.485248394213D+00 Z=  -1.673377091555D-01
 I=    4 X=  -2.236628833539D+00 Y=  -1.090021513545D+00 Z=   8.946188206146D-02
 MW Cartesian velocity:
 I=    1 X=   1.395222163385D+14 Y=   2.726331308878D+12 Z=   3.299010669224D+13
 I=    2 X=   1.728285713501D+14 Y=  -5.695342785675D+13 Z=  -1.272124401001D+14
 I=    3 X=  -1.057582385406D+13 Y=   1.095274800128D+14 Z=   3.221327633278D+13
 I=    4 X=  -2.671743022059D+14 Y=  -5.795999230340D+13 Z=   3.855486395338D+13
 TRJ-TRJ-TRJ-TRJ-TRJ-TRJ-TRJ-TRJ-TRJ-TRJ-TRJ-TRJ-TRJ-TRJ-TRJ-TRJ-TRJ-TRJ
                          Input orientation:                          
 ---------------------------------------------------------------------
 Center     Atomic      Atomic             Coordinates (Angstroms)
 Number     Number       Type             X           Y           Z
 ---------------------------------------------------------------------
      1          9           0        1.169508   -0.580909    0.040362
      2          6           0        0.022389    0.079144   -0.022130
      3          8           0        0.003759    1.316579   -0.088125
      4          9           0       -1.186815   -0.577520    0.047809
 ---------------------------------------------------------------------
                    Distance matrix (angstroms):
                    1          2          3          4
     1  F    0.000000
     2  C    1.324937   0.000000
     3  O    2.230682   1.239334   0.000000
     4  F    2.356338   1.377778   2.241329   0.000000
 Symmetry turned off by external request.
 Stoichiometry    CF2O
 Framework group  C1[X(CF2O)]
 Deg. of freedom     6
 Full point group                 C1      NOp   1
 Rotational constants (GHZ):          12.4026623           9.5788223           5.4051408
 Standard basis: 6-31G(d) (6D, 7F)
    60 basis functions,   112 primitive gaussians,    60 cartesian basis functions
    16 alpha electrons       16 beta electrons
       nuclear repulsion energy       115.0732697185 Hartrees.
 NAtoms=    4 NActive=    4 NUniq=    4 SFac= 1.00D+00 NAtFMM=   60 NAOKFM=F Big=F
 Integral buffers will be    131072 words long.
 Raffenetti 2 integral format.
 Two-electron integral symmetry is turned off.
 One-electron integrals computed using PRISM.
 NBasis=    60 RedAO= T EigKep=  4.37D-03  NBF=    60
 NBsUse=    60 1.00D-06 EigRej= -1.00D+00 NBFU=    60
 Keep R1 ints in memory in canonical form, NReq=8755229.
 Requested convergence on RMS density matrix=1.00D-08 within 128 cycles.
 Requested convergence on MAX density matrix=1.00D-06.
 Requested convergence on             energy=1.00D-06.
 No special actions if energy rises.
 SCF Done:  E(RB3LYP) =  -312.987253087     A.U. after    1 cycles
            NFock=  1  Conv=0.20D+01     -V/T= 2.0085
 Calling FoFJK, ICntrl=      2127 FMM=F ISym2X=0 I1Cent= 0 IOpClX= 0 NMat=1 NMatS=1 NMatT=0.
 -------------------------------------------------------------------
 Center     Atomic                   Forces (Hartrees/Bohr)
 Number     Number              X              Y              Z
 -------------------------------------------------------------------
      1        9          -0.047266976   -0.007362904    0.007705526
      2        6           0.077762157    0.048898235   -0.028767711
      3        8          -0.028172340   -0.029201304    0.013642979
      4        9          -0.002322841   -0.012334028    0.007419206
 -------------------------------------------------------------------
 Cartesian Forces:  Max     0.077762157 RMS     0.033737248
 TRJ-TRJ-TRJ-TRJ-TRJ-TRJ-TRJ-TRJ-TRJ-TRJ-TRJ-TRJ-TRJ-TRJ-TRJ-TRJ-TRJ-TRJ

 ADMP step      8
 Frobenius norm of [F,P] =     1.082524D-01
 Current gradient on entry to l121
 I=    1 X=   4.726697590237D-02 Y=   7.362903875126D-03 Z=  -7.705525697855D-03
 I=    2 X=  -7.776215745345D-02 Y=  -4.889823542308D-02 Z=   2.876771079168D-02
 I=    3 X=   2.817234013668D-02 Y=   2.920130397056D-02 Z=  -1.364297901137D-02
 I=    4 X=   2.322841414415D-03 Y=   1.233402757737D-02 Z=  -7.419206082457D-03

 Summary information for step      8
 Time (fs)     0.800000
 EKinC      =      0.0849663; EKinPA =      0.0032184; EKinPB =      0.0032184
 EKin       =      0.0914031; EPot   =   -312.9872531; ETot   =   -312.8958500
 ETot-EKinP =   -312.9022868
 Adiabaticity Index =   -1.4432D-03
 Integrand for the Velocity-Velocity Auto-Correlation  Function =   1.725292896684D-01
 Angular momentum
   JX = -0.3585945950D-14  JY =  0.5114962924D-14  JZ =  0.3891254572D-13
 Jtot =  0.3941076082D-13 H-BAR;  J (Quantum Number) =  0.0000000000D+00
 Total energy  -3.128958500D+02  Delta-E   1.469526D-05 A.U.
 Total angular momentum   3.941076D-14  Delta-A   2.171788D-14 h-bar
 Tr(PA)-NA =  3.553D-15
 Tr(PA**2-PA) =  8.447D-11
 Tr[(PA**2-PA)**2] =  7.336D-13
 Cartesian coordinates:
 I=    1 X=   2.210050697362D+00 Y=  -1.097759538618D+00 Z=   7.627255055674D-02
 I=    2 X=   4.230928760014D-02 Y=   1.495603585415D-01 Z=  -4.182057842576D-02
 I=    3 X=   7.104063679139D-03 Y=   2.487974079642D+00 Z=  -1.665313996515D-01
 I=    4 X=  -2.242755569196D+00 Y=  -1.091353766623D+00 Z=   9.034684486086D-02
 MW Cartesian velocity:
 I=    1 X=   1.385216146184D+14 Y=   2.511436294623D+12 Z=   3.309857509101D+13
 I=    2 X=   1.745561695346D+14 Y=  -5.541380571026D+13 Z=  -1.276806155484D+14
 I=    3 X=  -1.108021003589D+13 Y=   1.086652384542D+14 Z=   3.236863872337D+13
 I=    4 X=  -2.670839116082D+14 Y=  -5.817756170524D+13 Z=   3.867592566893D+13
 TRJ-TRJ-TRJ-TRJ-TRJ-TRJ-TRJ-TRJ-TRJ-TRJ-TRJ-TRJ-TRJ-TRJ-TRJ-TRJ-TRJ-TRJ
                          Input orientation:                          
 ---------------------------------------------------------------------
 Center     Atomic      Atomic             Coordinates (Angstroms)
 Number     Number       Type             X           Y           Z
 ---------------------------------------------------------------------
      1          9           0        1.171184   -0.580880    0.040765
      2          6           0        0.025072    0.078308   -0.024087
      3          8           0        0.003609    1.318012   -0.087695
      4          9           0       -1.190058   -0.578227    0.048280
 ---------------------------------------------------------------------
                    Distance matrix (angstroms):
                    1          2          3          4
     1  F    0.000000
     2  C    1.323747   0.000000
     3  O    2.232829   1.241521   0.000000
     4  F    2.361256   1.383046   2.244784   0.000000
 Symmetry turned off by external request.
 Stoichiometry    CF2O
 Framework group  C1[X(CF2O)]
 Deg. of freedom     6
 Full point group                 C1      NOp   1
 Rotational constants (GHZ):          12.3802482           9.5381856           5.3880547
 Standard basis: 6-31G(d) (6D, 7F)
    60 basis functions,   112 primitive gaussians,    60 cartesian basis functions
    16 alpha electrons       16 beta electrons
       nuclear repulsion energy       114.8970831281 Hartrees.
 NAtoms=    4 NActive=    4 NUniq=    4 SFac= 1.00D+00 NAtFMM=   60 NAOKFM=F Big=F
 Integral buffers will be    131072 words long.
 Raffenetti 2 integral format.
 Two-electron integral symmetry is turned off.
 One-electron integrals computed using PRISM.
 NBasis=    60 RedAO= T EigKep=  4.37D-03  NBF=    60
 NBsUse=    60 1.00D-06 EigRej= -1.00D+00 NBFU=    60
 Keep R1 ints in memory in canonical form, NReq=8755229.
 Requested convergence on RMS density matrix=1.00D-08 within 128 cycles.
 Requested convergence on MAX density matrix=1.00D-06.
 Requested convergence on             energy=1.00D-06.
 No special actions if energy rises.
 SCF Done:  E(RB3LYP) =  -312.986335488     A.U. after    1 cycles
            NFock=  1  Conv=0.20D+01     -V/T= 2.0087
 Calling FoFJK, ICntrl=      2127 FMM=F ISym2X=0 I1Cent= 0 IOpClX= 0 NMat=1 NMatS=1 NMatT=0.
 -------------------------------------------------------------------
 Center     Atomic                   Forces (Hartrees/Bohr)
 Number     Number              X              Y              Z
 -------------------------------------------------------------------
      1        9          -0.045517196   -0.008444302    0.009861492
      2        6           0.066358675    0.049061775   -0.039814570
      3        8          -0.027379057   -0.030884190    0.019675649
      4        9           0.006537578   -0.009733283    0.010277429
 -------------------------------------------------------------------
 Cartesian Forces:  Max     0.066358675 RMS     0.032875753
 TRJ-TRJ-TRJ-TRJ-TRJ-TRJ-TRJ-TRJ-TRJ-TRJ-TRJ-TRJ-TRJ-TRJ-TRJ-TRJ-TRJ-TRJ

 ADMP step      9
 Frobenius norm of [F,P] =     9.886331D-02
 Current gradient on entry to l121
 I=    1 X=   4.551719612176D-02 Y=   8.444302059347D-03 Z=  -9.861491968876D-03
 I=    2 X=  -6.635867476740D-02 Y=  -4.906177547692D-02 Z=   3.981457015673D-02
 I=    3 X=   2.737905711222D-02 Y=   3.088419033586D-02 Z=  -1.967564944201D-02
 I=    4 X=  -6.537578466592D-03 Y=   9.733283081720D-03 Z=  -1.027742874585D-02

 Summary information for step      9
 Time (fs)     0.900000
 EKinC      =      0.0851894; EKinPA =      0.0026420; EKinPB =      0.0026420
 EKin       =      0.0904735; EPot   =   -312.9863355; ETot   =   -312.8958620
 ETot-EKinP =   -312.9011460
 Adiabaticity Index =   -1.7916D-03
 Integrand for the Velocity-Velocity Auto-Correlation  Function =   1.727299619679D-01
 Angular momentum
   JX =  0.9926123634D-16  JY =  0.2056483616D-14  JZ =  0.2929996540D-13
 Jtot =  0.2937221391D-13 H-BAR;  J (Quantum Number) =  0.0000000000D+00
 Total energy  -3.128958620D+02  Delta-E  -1.199652D-05 A.U.
 Total angular momentum   2.937221D-14  Delta-A  -1.003855D-14 h-bar
 Tr(PA)-NA =  7.105D-15
 Tr(PA**2-PA) = -4.734D-11
 Tr[(PA**2-PA)**2] =  4.117D-13
 Cartesian coordinates:
 I=    1 X=   2.213216795367D+00 Y=  -1.097704218840D+00 Z=   7.703411284714D-02
 I=    2 X=   4.737867981604D-02 Y=   1.479797713545D-01 Z=  -4.551766214908D-02
 I=    3 X=   6.819402214863D-03 Y=   2.490682519782D+00 Z=  -1.657190199608D-01
 I=    4 X=  -2.248883998826D+00 Y=  -1.092690995321D+00 Z=   9.123652980735D-02
 MW Cartesian velocity:
 I=    1 X=   1.374970174200D+14 Y=   2.296015802560D+12 Z=   3.333269686295D+13
 I=    2 X=   1.765075137681D+14 Y=  -5.409092205024D+13 Z=  -1.286105879510D+14
 I=    3 X=  -1.167421433389D+13 Y=   1.079541974405D+14 Z=   3.265699679227D+13
 I=    4 X=  -2.670651187249D+14 Y=  -5.836108702185D+13 Z=   3.891631750282D+13
 TRJ-TRJ-TRJ-TRJ-TRJ-TRJ-TRJ-TRJ-TRJ-TRJ-TRJ-TRJ-TRJ-TRJ-TRJ-TRJ-TRJ-TRJ
                          Input orientation:                          
 ---------------------------------------------------------------------
 Center     Atomic      Atomic             Coordinates (Angstroms)
 Number     Number       Type             X           Y           Z
 ---------------------------------------------------------------------
      1          9           0        1.172847   -0.580854    0.041171
      2          6           0        0.027782    0.077491   -0.026060
      3          8           0        0.003450    1.319436   -0.087260
      4          9           0       -1.193300   -0.578937    0.048754
 ---------------------------------------------------------------------
                    Distance matrix (angstroms):
                    1          2          3          4
     1  F    0.000000
     2  C    1.322540   0.000000
     3  O    2.234968   1.243690   0.000000
     4  F    2.366160   1.388357   2.248228   0.000000
 Symmetry turned off by external request.
 Stoichiometry    CF2O
 Framework group  C1[X(CF2O)]
 Deg. of freedom     6
 Full point group                 C1      NOp   1
 Rotational constants (GHZ):          12.3579741           9.4978268           5.3710810
 Standard basis: 6-31G(d) (6D, 7F)
    60 basis functions,   112 primitive gaussians,    60 cartesian basis functions
    16 alpha electrons       16 beta electrons
       nuclear repulsion energy       114.7221123183 Hartrees.
 NAtoms=    4 NActive=    4 NUniq=    4 SFac= 1.00D+00 NAtFMM=   60 NAOKFM=F Big=F
 Integral buffers will be    131072 words long.
 Raffenetti 2 integral format.
 Two-electron integral symmetry is turned off.
 One-electron integrals computed using PRISM.
 NBasis=    60 RedAO= T EigKep=  4.37D-03  NBF=    60
 NBsUse=    60 1.00D-06 EigRej= -1.00D+00 NBFU=    60
 Keep R1 ints in memory in canonical form, NReq=8755229.
 Requested convergence on RMS density matrix=1.00D-08 within 128 cycles.
 Requested convergence on MAX density matrix=1.00D-06.
 Requested convergence on             energy=1.00D-06.
 No special actions if energy rises.
 SCF Done:  E(RB3LYP) =  -312.985546743     A.U. after    1 cycles
            NFock=  1  Conv=0.20D+01     -V/T= 2.0089
 Calling FoFJK, ICntrl=      2127 FMM=F ISym2X=0 I1Cent= 0 IOpClX= 0 NMat=1 NMatS=1 NMatT=0.
 -------------------------------------------------------------------
 Center     Atomic                   Forces (Hartrees/Bohr)
 Number     Number              X              Y              Z
 -------------------------------------------------------------------
      1        9          -0.039931088   -0.011983537    0.008648605
      2        6           0.026944183    0.064165818   -0.037790396
      3        8          -0.017387227   -0.046972786    0.020065955
      4        9           0.030374131   -0.005209495    0.009075835
 -------------------------------------------------------------------
 Cartesian Forces:  Max     0.064165818 RMS     0.031659318
 TRJ-TRJ-TRJ-TRJ-TRJ-TRJ-TRJ-TRJ-TRJ-TRJ-TRJ-TRJ-TRJ-TRJ-TRJ-TRJ-TRJ-TRJ

 ADMP step     10
 Frobenius norm of [F,P] =     8.160211D-02
 Current gradient on entry to l121
 I=    1 X=   3.993108765937D-02 Y=   1.198353740966D-02 Z=  -8.648605185670D-03
 I=    2 X=  -2.694418305986D-02 Y=  -6.416581839180D-02 Z=   3.779039557967D-02
 I=    3 X=   1.738722655463D-02 Y=   4.697278619054D-02 Z=  -2.006595505577D-02
 I=    4 X=  -3.037413115414D-02 Y=   5.209494791621D-03 Z=  -9.075835338232D-03

 Summary information for step     10
 Time (fs)     1.000000
 EKinC      =      0.0851810; EKinPA =      0.0022436; EKinPB =      0.0022436
 EKin       =      0.0896683; EPot   =   -312.9855467; ETot   =   -312.8958784
 ETot-EKinP =   -312.9003657
 Adiabaticity Index =   -1.3245D-03
 Integrand for the Velocity-Velocity Auto-Correlation  Function =   1.726791388876D-01
 Angular momentum
   JX =  0.1423677622D-14  JY =  0.4141227341D-14  JZ =  0.5859376220D-13
 Jtot =  0.5875717480D-13 H-BAR;  J (Quantum Number) =  0.0000000000D+00
 Total energy  -3.128958784D+02  Delta-E  -1.646470D-05 A.U.
 Total angular momentum   5.875717D-14  Delta-A   2.938496D-14 h-bar
 Tr(PA)-NA =  0.000D+00
 Tr(PA**2-PA) = -7.528D-11
 Tr[(PA**2-PA)**2] =  6.546D-13
 Cartesian coordinates:
 I=    1 X=   2.216359758304D+00 Y=  -1.097654185761D+00 Z=   7.780202384870D-02
 I=    2 X=   5.249995365894D-02 Y=   1.464374177009D-01 Z=  -4.924591418317D-02
 I=    3 X=   6.520260178479D-03 Y=   2.493372647509D+00 Z=  -1.648982902616D-01
 I=    4 X=  -2.255009872170D+00 Y=  -1.094031669472D+00 Z=   9.213252300405D-02
 MW Cartesian velocity:
 I=    1 X=   1.365512704618D+14 Y=   2.032944988395D+12 Z=   3.360649935146D+13
 I=    2 X=   1.777713852259D+14 Y=  -5.256223931651D+13 Z=  -1.296627764088D+14
 I=    3 X=  -1.214176443817D+13 Y=   1.070328216661D+14 Z=   3.298841251908D+13
 I=    4 X=  -2.666948339209D+14 Y=  -5.846752756114D+13 Z=   3.917465237623D+13
 TRJ-TRJ-TRJ-TRJ-TRJ-TRJ-TRJ-TRJ-TRJ-TRJ-TRJ-TRJ-TRJ-TRJ-TRJ-TRJ-TRJ-TRJ
                          Input orientation:                          
 ---------------------------------------------------------------------
 Center     Atomic      Atomic             Coordinates (Angstroms)
 Number     Number       Type             X           Y           Z
 ---------------------------------------------------------------------
      1          9           0        1.174500   -0.580831    0.041581
      2          6           0        0.030503    0.076702   -0.028048
      3          8           0        0.003287    1.320845   -0.086822
      4          9           0       -1.196534   -0.579647    0.049232
 ---------------------------------------------------------------------
                    Distance matrix (angstroms):
                    1          2          3          4
     1  F    0.000000
     2  C    1.321335   0.000000
     3  O    2.237095   1.245828   0.000000
     4  F    2.371046   1.393695   2.251655   0.000000
 Symmetry turned off by external request.
 Stoichiometry    CF2O
 Framework group  C1[X(CF2O)]
 Deg. of freedom     6
 Full point group                 C1      NOp   1
 Rotational constants (GHZ):          12.3358981           9.4577849           5.3542433
 Standard basis: 6-31G(d) (6D, 7F)
    60 basis functions,   112 primitive gaussians,    60 cartesian basis functions
    16 alpha electrons       16 beta electrons
       nuclear repulsion energy       114.5486135445 Hartrees.
 NAtoms=    4 NActive=    4 NUniq=    4 SFac= 1.00D+00 NAtFMM=   60 NAOKFM=F Big=F
 Integral buffers will be    131072 words long.
 Raffenetti 2 integral format.
 Two-electron integral symmetry is turned off.
 One-electron integrals computed using PRISM.
 NBasis=    60 RedAO= T EigKep=  4.37D-03  NBF=    60
 NBsUse=    60 1.00D-06 EigRej= -1.00D+00 NBFU=    60
 Keep R1 ints in memory in canonical form, NReq=8755229.
 Requested convergence on RMS density matrix=1.00D-08 within 128 cycles.
 Requested convergence on MAX density matrix=1.00D-06.
 Requested convergence on             energy=1.00D-06.
 No special actions if energy rises.
 SCF Done:  E(RB3LYP) =  -312.984645380     A.U. after    1 cycles
            NFock=  1  Conv=0.20D+01     -V/T= 2.0091
 Calling FoFJK, ICntrl=      2127 FMM=F ISym2X=0 I1Cent= 0 IOpClX= 0 NMat=1 NMatS=1 NMatT=0.
 -------------------------------------------------------------------
 Center     Atomic                   Forces (Hartrees/Bohr)
 Number     Number              X              Y              Z
 -------------------------------------------------------------------
      1        9          -0.032820310   -0.016509409    0.004925989
      2        6          -0.021907705    0.088990061   -0.025308812
      3        8          -0.002416727   -0.071305120    0.015524441
      4        9           0.057144742   -0.001175533    0.004858383
 -------------------------------------------------------------------
 Cartesian Forces:  Max     0.088990061 RMS     0.039828266
 TRJ-TRJ-TRJ-TRJ-TRJ-TRJ-TRJ-TRJ-TRJ-TRJ-TRJ-TRJ-TRJ-TRJ-TRJ-TRJ-TRJ-TRJ

 ADMP step     11
 Frobenius norm of [F,P] =     7.513293D-02
 Current gradient on entry to l121
 I=    1 X=   3.282031016763D-02 Y=   1.650940901947D-02 Z=  -4.925989119381D-03
 I=    2 X=   2.190770528330D-02 Y=  -8.899006143840D-02 Z=   2.530881243371D-02
 I=    3 X=   2.416726857826D-03 Y=   7.130511981951D-02 Z=  -1.552444062686D-02
 I=    4 X=  -5.714474230874D-02 Y=   1.175532599344D-03 Z=  -4.858382687475D-03

 Summary information for step     11
 Time (fs)     1.100000
 EKinC      =      0.0846926; EKinPA =      0.0020335; EKinPB =      0.0020335
 EKin       =      0.0887597; EPot   =   -312.9846454; ETot   =   -312.8958857
 ETot-EKinP =   -312.8999528
 Adiabaticity Index =   -5.3689D-04
 Integrand for the Velocity-Velocity Auto-Correlation  Function =   1.721151236238D-01
 Angular momentum
   JX =  0.5031377468D-14  JY =  0.6679633947D-14  JZ =  0.5840317910D-13
 Jtot =  0.5899884404D-13 H-BAR;  J (Quantum Number) =  0.0000000000D+00
 Total energy  -3.128958857D+02  Delta-E  -7.248795D-06 A.U.
 Total angular momentum   5.899884D-14  Delta-A   2.416692D-16 h-bar
 Tr(PA)-NA = -5.329D-15
 Tr(PA**2-PA) =  7.635D-11
 Tr[(PA**2-PA)**2] =  6.635D-13
 Cartesian coordinates:
 I=    1 X=   2.219482460639D+00 Y=  -1.097610937007D+00 Z=   7.857614958679D-02
 I=    2 X=   5.764231552747D-02 Y=   1.449450890527D-01 Z=  -5.300374603543D-02
 I=    3 X=   6.212217493009D-03 Y=   2.496035011538D+00 Z=  -1.640693371506D-01
 I=    4 X=  -2.261121311254D+00 Y=  -1.095373782202D+00 Z=   9.303406166555D-02
 MW Cartesian velocity:
 I=    1 X=   1.357519598870D+14 Y=   1.701893801368D+12 Z=   3.383653359429D+13
 I=    2 X=   1.778406274633D+14 Y=  -5.049294583255D+13 Z=  -1.305181882597D+14
 I=    3 X=  -1.233799590948D+13 Y=   1.056379296253D+14 Z=   3.327409674551D+13
 I=    4 X=  -2.657705005142D+14 Y=  -5.850116211608D+13 Z=   3.936232793048D+13
 TRJ-TRJ-TRJ-TRJ-TRJ-TRJ-TRJ-TRJ-TRJ-TRJ-TRJ-TRJ-TRJ-TRJ-TRJ-TRJ-TRJ-TRJ
                          Input orientation:                          
 ---------------------------------------------------------------------
 Center     Atomic      Atomic             Coordinates (Angstroms)
 Number     Number       Type             X           Y           Z
 ---------------------------------------------------------------------
      1          9           0        1.176143   -0.580812    0.041993
      2          6           0        0.033215    0.075949   -0.030047
      3          8           0        0.003124    1.322231   -0.086380
      4          9           0       -1.199753   -0.580357    0.049710
 ---------------------------------------------------------------------
                    Distance matrix (angstroms):
                    1          2          3          4
     1  F    0.000000
     2  C    1.320155   0.000000
     3  O    2.239203   1.247918   0.000000
     4  F    2.375909   1.399039   2.255056   0.000000
 Symmetry turned off by external request.
 Stoichiometry    CF2O
 Framework group  C1[X(CF2O)]
 Deg. of freedom     6
 Full point group                 C1      NOp   1
 Rotational constants (GHZ):          12.3141062           9.4181027           5.3375713
 Standard basis: 6-31G(d) (6D, 7F)
    60 basis functions,   112 primitive gaussians,    60 cartesian basis functions
    16 alpha electrons       16 beta electrons
       nuclear repulsion energy       114.3769169483 Hartrees.
 NAtoms=    4 NActive=    4 NUniq=    4 SFac= 1.00D+00 NAtFMM=   60 NAOKFM=F Big=F
 Integral buffers will be    131072 words long.
 Raffenetti 2 integral format.
 Two-electron integral symmetry is turned off.
 One-electron integrals computed using PRISM.
 NBasis=    60 RedAO= T EigKep=  4.37D-03  NBF=    60
 NBsUse=    60 1.00D-06 EigRej= -1.00D+00 NBFU=    60
 Keep R1 ints in memory in canonical form, NReq=8755229.
 Requested convergence on RMS density matrix=1.00D-08 within 128 cycles.
 Requested convergence on MAX density matrix=1.00D-06.
 Requested convergence on             energy=1.00D-06.
 No special actions if energy rises.
 SCF Done:  E(RB3LYP) =  -312.983524042     A.U. after    1 cycles
            NFock=  1  Conv=0.20D+01     -V/T= 2.0091
 Calling FoFJK, ICntrl=      2127 FMM=F ISym2X=0 I1Cent= 0 IOpClX= 0 NMat=1 NMatS=1 NMatT=0.
 -------------------------------------------------------------------
 Center     Atomic                   Forces (Hartrees/Bohr)
 Number     Number              X              Y              Z
 -------------------------------------------------------------------
      1        9          -0.026818946   -0.020521020    0.000131033
      2        6          -0.062215523    0.116399471   -0.007500462
      3        8           0.012409469   -0.096265343    0.007973368
      4        9           0.076624999    0.000386892   -0.000603939
 -------------------------------------------------------------------
 Cartesian Forces:  Max     0.116399471 RMS     0.053207723
 TRJ-TRJ-TRJ-TRJ-TRJ-TRJ-TRJ-TRJ-TRJ-TRJ-TRJ-TRJ-TRJ-TRJ-TRJ-TRJ-TRJ-TRJ

 ADMP step     12
 Frobenius norm of [F,P] =     8.536760D-02
 Current gradient on entry to l121
 I=    1 X=   2.681894615619D-02 Y=   2.052102039347D-02 Z=  -1.310331564152D-04
 I=    2 X=   6.221552253891D-02 Y=  -1.163994714537D-01 Z=   7.500461911194D-03
 I=    3 X=  -1.240946944591D-02 Y=   9.626534335531D-02 Z=  -7.973368029839D-03
 I=    4 X=  -7.662499924917D-02 Y=  -3.868922950927D-04 Z=   6.039392750602D-04

 Summary information for step     12
 Time (fs)     1.200000
 EKinC      =      0.0836866; EKinPA =      0.0019779; EKinPB =      0.0019779
 EKin       =      0.0876424; EPot   =   -312.9835240; ETot   =   -312.8958817
 ETot-EKinP =   -312.8998374
 Adiabaticity Index =    2.7659D-04
 Integrand for the Velocity-Velocity Auto-Correlation  Function =   1.709884383124D-01
 Angular momentum
   JX =  0.1397444813D-13  JY = -0.4586279590D-14  JZ =  0.6897710426D-13
 Jtot =  0.7052772556D-13 H-BAR;  J (Quantum Number) =  0.0000000000D+00
 Total energy  -3.128958817D+02  Delta-E   4.025356D-06 A.U.
 Total angular momentum   7.052773D-14  Delta-A   1.152888D-14 h-bar
 Tr(PA)-NA = -5.329D-15
 Tr(PA**2-PA) = -5.024D-11
 Tr[(PA**2-PA)**2] =  4.365D-13
 Cartesian coordinates:
 I=    1 X=   2.222588747150D+00 Y=  -1.097576094236D+00 Z=   7.935461572680D-02
 I=    2 X=   6.276758707282D-02 Y=   1.435222061140D-01 Z=  -5.678138529576D-02
 I=    3 X=   5.903262323456D-03 Y=   2.498655383576D+00 Z=  -1.632343209695D-01
 I=    4 X=  -2.267204771490D+00 Y=  -1.096715999677D+00 Z=   9.393866636912D-02
 MW Cartesian velocity:
 I=    1 X=   1.351105059030D+14 Y=   1.309045186067D+12 Z=   3.396377676721D+13
 I=    2 X=   1.767028296686D+14 Y=  -4.771542073924D+13 Z=  -1.309629213027D+14
 I=    3 X=  -1.222118363507D+13 Y=   1.036673931621D+14 Z=   3.345035841598D+13
 I=    4 X=  -2.643319602974D+14 Y=  -5.850768251385D+13 Z=   3.942680770213D+13
 TRJ-TRJ-TRJ-TRJ-TRJ-TRJ-TRJ-TRJ-TRJ-TRJ-TRJ-TRJ-TRJ-TRJ-TRJ-TRJ-TRJ-TRJ
                          Input orientation:                          
 ---------------------------------------------------------------------
 Center     Atomic      Atomic             Coordinates (Angstroms)
 Number     Number       Type             X           Y           Z
 ---------------------------------------------------------------------
      1          9           0        1.177780   -0.580799    0.042405
      2          6           0        0.035902    0.075244   -0.032050
      3          8           0        0.002964    1.323588   -0.085937
      4          9           0       -1.202952   -0.581067    0.050189
 ---------------------------------------------------------------------
                    Distance matrix (angstroms):
                    1          2          3          4
     1  F    0.000000
     2  C    1.319023   0.000000
     3  O    2.241284   1.249941   0.000000
     4  F    2.380745   1.404374   2.258424   0.000000
 Symmetry turned off by external request.
 Stoichiometry    CF2O
 Framework group  C1[X(CF2O)]
 Deg. of freedom     6
 Full point group                 C1      NOp   1
 Rotational constants (GHZ):          12.2926831           9.3788099           5.3210897
 Standard basis: 6-31G(d) (6D, 7F)
    60 basis functions,   112 primitive gaussians,    60 cartesian basis functions
    16 alpha electrons       16 beta electrons
       nuclear repulsion energy       114.2073104267 Hartrees.
 NAtoms=    4 NActive=    4 NUniq=    4 SFac= 1.00D+00 NAtFMM=   60 NAOKFM=F Big=F
 Integral buffers will be    131072 words long.
 Raffenetti 2 integral format.
 Two-electron integral symmetry is turned off.
 One-electron integrals computed using PRISM.
 NBasis=    60 RedAO= T EigKep=  4.37D-03  NBF=    60
 NBsUse=    60 1.00D-06 EigRej= -1.00D+00 NBFU=    60
 Keep R1 ints in memory in canonical form, NReq=8755229.
 Requested convergence on RMS density matrix=1.00D-08 within 128 cycles.
 Requested convergence on MAX density matrix=1.00D-06.
 Requested convergence on             energy=1.00D-06.
 No special actions if energy rises.
 SCF Done:  E(RB3LYP) =  -312.982247598     A.U. after    1 cycles
            NFock=  1  Conv=0.20D+01     -V/T= 2.0090
 Calling FoFJK, ICntrl=      2127 FMM=F ISym2X=0 I1Cent= 0 IOpClX= 0 NMat=1 NMatS=1 NMatT=0.
 -------------------------------------------------------------------
 Center     Atomic                   Forces (Hartrees/Bohr)
 Number     Number              X              Y              Z
 -------------------------------------------------------------------
      1        9          -0.023878839   -0.022960626   -0.004231715
      2        6          -0.082771173    0.139499653    0.009785469
      3        8           0.022792044   -0.115315601   -0.000108720
      4        9           0.083857969   -0.001223426   -0.005445034
 -------------------------------------------------------------------
 Cartesian Forces:  Max     0.139499653 RMS     0.063510336
 TRJ-TRJ-TRJ-TRJ-TRJ-TRJ-TRJ-TRJ-TRJ-TRJ-TRJ-TRJ-TRJ-TRJ-TRJ-TRJ-TRJ-TRJ

 ADMP step     13
 Frobenius norm of [F,P] =     9.735503D-02
 Current gradient on entry to l121
 I=    1 X=   2.387883937459D-02 Y=   2.296062571538D-02 Z=   4.231715119628D-03
 I=    2 X=   8.277117331722D-02 Y=  -1.394996529130D-01 Z=  -9.785468788184D-03
 I=    3 X=  -2.279204355342D-02 Y=   1.153156010880D-01 Z=   1.087198555396D-04
 I=    4 X=  -8.385796913841D-02 Y=   1.223426109701D-03 Z=   5.445033813017D-03

 Summary information for step     13
 Time (fs)     1.300000
 EKinC      =      0.0823038; EKinPA =      0.0020366; EKinPB =      0.0020366
 EKin       =      0.0863770; EPot   =   -312.9822476; ETot   =   -312.8958706
 ETot-EKinP =   -312.8999438
 Adiabaticity Index =    8.8234D-04
 Integrand for the Velocity-Velocity Auto-Correlation  Function =   1.694299956757D-01
 Angular momentum
   JX =  0.1755122726D-13  JY =  0.1121504374D-14  JZ =  0.7837841092D-13
 Jtot =  0.8032732193D-13 H-BAR;  J (Quantum Number) =  0.0000000000D+00
 Total energy  -3.128958706D+02  Delta-E   1.105154D-05 A.U.
[...]
 Total angular momentum   6.100826D-14  Delta-A   1.263552D-14 h-bar
 Tr(PA)-NA =  3.553D-15
 Tr(PA**2-PA) = -6.670D-11
 Tr[(PA**2-PA)**2] =  5.799D-13
 Cartesian coordinates:
 I=    1 X=   2.326431549846D+00 Y=  -1.101714593252D+00 Z=   1.066610495178D-01
 I=    2 X=   2.180775184960D-01 Y=   1.599543698839D-01 Z=  -1.875161962881D-01
 I=    3 X=   3.920516889901D-05 Y=   2.548698170054D+00 Z=  -1.342362505489D-01
 I=    4 X=  -2.464209302578D+00 Y=  -1.145088022212D+00 Z=   1.247948084676D-01
 MW Cartesian velocity:
 I=    1 X=   1.085601985792D+14 Y=  -9.519204821474D+12 Z=   2.931587779076D+13
 I=    2 X=   1.069224376738D+14 Y=   7.706128007695D+13 Z=  -1.081188777877D+14
 I=    3 X=   1.707477597859D+12 Y=   1.203623094299D+12 Z=   2.703456894725D+13
 I=    4 X=  -1.951038121115D+14 Y=  -5.282985524831D+13 Z=   3.180618275761D+13
 TRJ-TRJ-TRJ-TRJ-TRJ-TRJ-TRJ-TRJ-TRJ-TRJ-TRJ-TRJ-TRJ-TRJ-TRJ-TRJ-TRJ-TRJ
                          Input orientation:                          
 ---------------------------------------------------------------------
 Center     Atomic      Atomic             Coordinates (Angstroms)
 Number     Number       Type             X           Y           Z
 ---------------------------------------------------------------------
      1          9           0        1.232408   -0.583118    0.056797
      2          6           0        0.117015    0.085842   -0.100871
      3          8           0        0.000047    1.348712   -0.070680
      4          9           0       -1.306359   -0.606594    0.066422
 ---------------------------------------------------------------------
                    Distance matrix (angstroms):
                    1          2          3          4
     1  F    0.000000
     2  C    1.310141   0.000000
     3  O    2.294979   1.268634   0.000000
     4  F    2.538894   1.591681   2.355571   0.000000
 Symmetry turned off by external request.
 Stoichiometry    CF2O
 Framework group  C1[X(CF2O)]
 Deg. of freedom     6
 Full point group                 C1      NOp   1
 Rotational constants (GHZ):          11.7940038           8.1905676           4.8457619
 Standard basis: 6-31G(d) (6D, 7F)
    60 basis functions,   112 primitive gaussians,    60 cartesian basis functions
    16 alpha electrons       16 beta electrons
       nuclear repulsion energy       109.4452982525 Hartrees.
 NAtoms=    4 NActive=    4 NUniq=    4 SFac= 1.00D+00 NAtFMM=   60 NAOKFM=F Big=F
 Integral buffers will be    131072 words long.
 Raffenetti 2 integral format.
 Two-electron integral symmetry is turned off.
 One-electron integrals computed using PRISM.
 NBasis=    60 RedAO= T EigKep=  4.59D-03  NBF=    60
 NBsUse=    60 1.00D-06 EigRej= -1.00D+00 NBFU=    60
 Keep R1 ints in memory in canonical form, NReq=8755229.
 Requested convergence on RMS density matrix=1.00D-08 within 128 cycles.
 Requested convergence on MAX density matrix=1.00D-06.
 Requested convergence on             energy=1.00D-06.
 No special actions if energy rises.
 SCF Done:  E(RB3LYP) =  -312.943402472     A.U. after    1 cycles
            NFock=  1  Conv=0.20D+01     -V/T= 2.0096
 Calling FoFJK, ICntrl=      2127 FMM=F ISym2X=0 I1Cent= 0 IOpClX= 0 NMat=1 NMatS=1 NMatT=0.
 -------------------------------------------------------------------
 Center     Atomic                   Forces (Hartrees/Bohr)
 Number     Number              X              Y              Z
 -------------------------------------------------------------------
      1        9          -0.033084111   -0.010848477   -0.008939696
      2        6          -0.083650745    0.109922229    0.040191071
      3        8           0.019093373   -0.114019257   -0.016786718
      4        9           0.097641483    0.014945506   -0.014464658
 -------------------------------------------------------------------
 Cartesian Forces:  Max     0.114019257 RMS     0.061644834
 TRJ-TRJ-TRJ-TRJ-TRJ-TRJ-TRJ-TRJ-TRJ-TRJ-TRJ-TRJ-TRJ-TRJ-TRJ-TRJ-TRJ-TRJ

 ADMP step     50
 Frobenius norm of [F,P] =     9.020163D-02
 Current gradient on entry to l121
 I=    1 X=   3.308411108192D-02 Y=   1.084847725739D-02 Z=   8.939695807110D-03
 I=    2 X=   8.365074508358D-02 Y=  -1.099222285136D-01 Z=  -4.019107140581D-02
 I=    3 X=  -1.909337313789D-02 Y=   1.140192573546D-01 Z=   1.678671781352D-02
 I=    4 X=  -9.764148302759D-02 Y=  -1.494550609836D-02 Z=   1.446465778517D-02

 Summary information for step     50
 Time (fs)     5.000000
 EKinC      =      0.0442682; EKinPA =      0.0016319; EKinPB =      0.0016319
 EKin       =      0.0475321; EPot   =   -312.9434025; ETot   =   -312.8958704
 ETot-EKinP =   -312.8991343
 Adiabaticity Index =    8.4557D-04
 Integrand for the Velocity-Velocity Auto-Correlation  Function =   1.044985931463D-01
 Angular momentum
   JX =  0.2125104800D-13  JY =  0.1778258220D-13  JZ =  0.5260187032D-13
 Jtot =  0.5945404975D-13 H-BAR;  J (Quantum Number) =  0.0000000000D+00
 Total energy  -3.128958704D+02  Delta-E   7.475723D-06 A.U.
 Total angular momentum   5.945405D-14  Delta-A  -1.554210D-15 h-bar
 Tr(PA)-NA =  7.105D-15
 Tr(PA**2-PA) = -1.127D-10
 Tr[(PA**2-PA)**2] =  9.795D-13
 Cartesian coordinates:
 I=    1 X=   2.328914088009D+00 Y=  -1.101934083353D+00 Z=   1.073305204065D-01
 I=    2 X=   2.211271513078D-01 Y=   1.622178561032D-01 Z=  -1.906190234717D-01
 I=    3 X=   8.948370010836D-05 Y=   2.548695530970D+00 Z=  -1.335652519396D-01
 I=    4 X=  -2.468660416419D+00 Y=  -1.146296000639D+00 Z=   1.255202632668D-01
 MW Cartesian velocity:
 I=    1 X=   1.078494847187D+14 Y=  -9.687602506398D+12 Z=   2.907306764654D+13
 I=    2 X=   1.045100561092D+14 Y=   7.989789154965D+13 Z=  -1.069412941970D+14
 I=    3 X=   2.238115037313D+12 Y=  -1.441311537882D+12 Z=   2.665428576150D+13
 I=    4 X=  -1.929627406024D+14 Y=  -5.248898779399D+13 Z=   3.146203601855D+13


 Final analysis for traj   1
 Traj calculation does not meet the product criterion.


 Analysis of fragment    1

 Instantaneous rotational analysis:
 Q(CM): X=  0.000000000000D+00 Y=  0.000000000000D+00 Z= -0.672946851785D-17
 V(CM): X=  0.159824877299D-01 Y=  0.841183564731D-02 Z=  0.715006030021D-02
 Angular momentum in principle axes
   JX =  0.2202916044D-13  JY =  0.1223842246D-13  JZ =  0.5384905884D-13
 Jtot =  0.5945404975D-13  H-BAR;  J (Quantum Number) =  0.0000000000D+00
 Angular momentum in original axes
   JX =  0.2125104800D-13  JY =  0.1778258220D-13  JZ =  0.5260187032D-13
 Jtot =  0.5945404975D-13  H-BAR;  J (Quantum Number) =  0.0000000000D+00

 Etrn =  0.9922953997D-32 Erot =  0.3191881809D-32 Evib(kin) =  0.4426817947D-01 au
 Epot = -0.3128958704D+03 Etot = -0.3128516022D+03 au

 Trajectory summary for trajectory      1
 Energy/Fock evaluations               51
 Gradient evaluations                  51

 Trajectory summary
   Time (fs)   Kinetic (au)   Potent (au)   Delta E (au)     Delta A (h-bar)
     0.000000     0.1000000  -312.9959809     0.0000000     0.0000000000000000
     0.100000     0.0986309  -312.9945523     0.0000595    -0.0000000000000050
     0.200000     0.0966012  -312.9924245     0.0001576    -0.0000000000000126
     0.300000     0.0952190  -312.9910205     0.0001794    -0.0000000000000124
     0.400000     0.0948043  -312.9906652     0.0001200     0.0000000000000059
     0.500000     0.0945768  -312.9904887     0.0000690    -0.0000000000000014
     0.600000     0.0938143  -312.9897161     0.0000792     0.0000000000000029
     0.700000     0.0925942  -312.9884588     0.0001162     0.0000000000000026
     0.800000     0.0914031  -312.9872531     0.0001309     0.0000000000000243
     0.900000     0.0904735  -312.9863355     0.0001189     0.0000000000000143
     1.000000     0.0896683  -312.9855467     0.0001025     0.0000000000000437
     1.100000     0.0887597  -312.9846454     0.0000952     0.0000000000000439
     1.200000     0.0876424  -312.9835240     0.0000992     0.0000000000000554
     1.300000     0.0863770  -312.9822476     0.0001103     0.0000000000000652
     1.400000     0.0851170  -312.9809812     0.0001167     0.0000000000000672
     1.500000     0.0839452  -312.9798154     0.0001106     0.0000000000000469
     1.600000     0.0827806  -312.9786592     0.0001023     0.0000000000000569
     1.700000     0.0815150  -312.9773895     0.0001064     0.0000000000000319
     1.800000     0.0801983  -312.9760612     0.0001180     0.0000000000000435
     1.900000     0.0789762  -312.9748372     0.0001199     0.0000000000000071
     2.000000     0.0778740  -312.9737444     0.0001104     0.0000000000000194
     2.100000     0.0767712  -312.9726482     0.0001038     0.0000000000000170
     2.200000     0.0755759  -312.9714510     0.0001058     0.0000000000000088
     2.300000     0.0743068  -312.9701784     0.0001093     0.0000000000000148
     2.400000     0.0730174  -312.9688864     0.0001119     0.0000000000000148
     2.500000     0.0717580  -312.9676226     0.0001162     0.0000000000000145
     2.600000     0.0705879  -312.9664524     0.0001165     0.0000000000000128
     2.700000     0.0694997  -312.9653740     0.0001066     0.0000000000000182
     2.800000     0.0683619  -312.9642441     0.0000987     0.0000000000000152
     2.900000     0.0670835  -312.9629556     0.0001088     0.0000000000000178
     3.000000     0.0657997  -312.9616554     0.0001253     0.0000000000000228
     3.100000     0.0647151  -312.9605742     0.0001218     0.0000000000000172
     3.200000     0.0637744  -312.9596545     0.0001008     0.0000000000000242
     3.300000     0.0627059  -312.9585920     0.0000948     0.0000000000000387
     3.400000     0.0614332  -312.9572988     0.0001153     0.0000000000000309
     3.500000     0.0602165  -312.9560649     0.0001325     0.0000000000000251
     3.600000     0.0592771  -312.9551365     0.0001215     0.0000000000000334
     3.700000     0.0584770  -312.9543580     0.0000999     0.0000000000000405
     3.800000     0.0575350  -312.9534177     0.0000982     0.0000000000000479
     3.900000     0.0564201  -312.9522862     0.0001148     0.0000000000000348
     4.000000     0.0553456  -312.9512016     0.0001249     0.0000000000000542
     4.100000     0.0544549  -312.9503165     0.0001193     0.0000000000000293
     4.200000     0.0536841  -312.9495553     0.0001097     0.0000000000000443
     4.300000     0.0529003  -312.9487757     0.0001055     0.0000000000000521
     4.400000     0.0520370  -312.9479114     0.0001065     0.0000000000000556
     4.500000     0.0511116  -312.9469800     0.0001125     0.0000000000000441
     4.600000     0.0502159  -312.9460756     0.0001212     0.0000000000000411
     4.700000     0.0494644  -312.9453228     0.0001224     0.0000000000000368
     4.800000     0.0488608  -312.9447300     0.0001117     0.0000000000000333
     4.900000     0.0482553  -312.9441332     0.0001030     0.0000000000000459
     5.000000     0.0475321  -312.9434025     0.0001105     0.0000000000000444
                             Max Error =      0.0001794     0.0000000000000672

 Density conservation (alpha)
    Time (fs)      Electron #     Av. Idempot     RMS Idempot
     0.000000  0.000000000000  0.000000000000  0.000000000000
     0.100000  0.000000000000  0.000000000000  0.000000000000
     0.200000 -0.000000000000 -0.000000000104  0.000000000001
     0.300000 -0.000000000000  0.000000000075  0.000000000001
     0.400000  0.000000000000  0.000000000103  0.000000000001
     0.500000 -0.000000000000 -0.000000000047  0.000000000000
     0.600000 -0.000000000000 -0.000000000051  0.000000000000
     0.700000 -0.000000000000 -0.000000000047  0.000000000000
     0.800000  0.000000000000  0.000000000084  0.000000000001
     0.900000  0.000000000000 -0.000000000047  0.000000000000
     1.000000  0.000000000000 -0.000000000075  0.000000000001
     1.100000 -0.000000000000  0.000000000076  0.000000000001
     1.200000 -0.000000000000 -0.000000000050  0.000000000000
     1.300000 -0.000000000000 -0.000000000065  0.000000000001
     1.400000 -0.000000000000 -0.000000000072  0.000000000001
     1.500000  0.000000000000 -0.000000000068  0.000000000001
     1.600000 -0.000000000000 -0.000000000054  0.000000000000
     1.700000  0.000000000000  0.000000000081  0.000000000001
     1.800000  0.000000000000 -0.000000000058  0.000000000001
     1.900000  0.000000000000  0.000000000077  0.000000000001
     2.000000 -0.000000000000 -0.000000000080  0.000000000001
     2.100000  0.000000000000  0.000000000049  0.000000000000
     2.200000  0.000000000000  0.000000000059  0.000000000001
     2.300000  0.000000000000  0.000000000063  0.000000000001
     2.400000 -0.000000000000  0.000000000058  0.000000000001
     2.500000  0.000000000000 -0.000000000096  0.000000000001
     2.600000  0.000000000000 -0.000000000114  0.000000000001
     2.700000 -0.000000000000  0.000000000087  0.000000000001
     2.800000  0.000000000000 -0.000000000091  0.000000000001
     2.900000  0.000000000000  0.000000000061  0.000000000001
     3.000000 -0.000000000000  0.000000000075  0.000000000001
     3.100000 -0.000000000000  0.000000000077  0.000000000001
     3.200000 -0.000000000000  0.000000000065  0.000000000001
     3.300000  0.000000000000 -0.000000000101  0.000000000001
     3.400000  0.000000000000  0.000000000097  0.000000000001
     3.500000  0.000000000000  0.000000000072  0.000000000001
     3.600000 -0.000000000000  0.000000000055  0.000000000000
     3.700000 -0.000000000000  0.000000000083  0.000000000001
     3.800000  0.000000000000  0.000000000095  0.000000000001
     3.900000  0.000000000000  0.000000000093  0.000000000001
     4.000000  0.000000000000  0.000000000076  0.000000000001
     4.100000  0.000000000000 -0.000000000102  0.000000000001
     4.200000  0.000000000000 -0.000000000081  0.000000000001
     4.300000  0.000000000000 -0.000000000058  0.000000000001
     4.400000  0.000000000000 -0.000000000113  0.000000000001
     4.500000  0.000000000000  0.000000000066  0.000000000001
     4.600000  0.000000000000  0.000000000073  0.000000000001
     4.700000 -0.000000000000  0.000000000066  0.000000000001
     4.800000  0.000000000000  0.000000000049  0.000000000000
     4.900000  0.000000000000 -0.000000000067  0.000000000001
     5.000000  0.000000000000 -0.000000000113  0.000000000001
 Max Error =   0.000000000000 -0.000000000114  0.000000000001
 TRJ-TRJ-TRJ-TRJ-TRJ-TRJ-TRJ-TRJ-TRJ-TRJ-TRJ-TRJ-TRJ-TRJ-TRJ-TRJ-TRJ-TRJ
                          Input orientation:                          
 ---------------------------------------------------------------------
 Center     Atomic      Atomic             Coordinates (Angstroms)
 Number     Number       Type             X           Y           Z
 ---------------------------------------------------------------------
      1          9           0        1.232408   -0.583118    0.056797
      2          6           0        0.117015    0.085842   -0.100871
      3          8           0        0.000047    1.348712   -0.070680
      4          9           0       -1.306359   -0.606594    0.066422
 ---------------------------------------------------------------------
                    Distance matrix (angstroms):
                    1          2          3          4
     1  F    0.000000
     2  C    1.310141   0.000000
     3  O    2.294979   1.268634   0.000000
     4  F    2.538894   1.591681   2.355571   0.000000
 Symmetry turned off by external request.
 Stoichiometry    CF2O
 Framework group  C1[X(CF2O)]
 Deg. of freedom     6
 Full point group                 C1      NOp   1
 Rotational constants (GHZ):          11.7940038           8.1905676           4.8457619

 **********************************************************************

            Population analysis using the SCF Density.

 **********************************************************************

 Alpha  occ. eigenvalues --  -24.78475 -24.78475 -19.19019 -10.45755  -1.32267
 Alpha  occ. eigenvalues --   -1.27367  -1.07763  -0.69052  -0.62442  -0.56555
 Alpha  occ. eigenvalues --   -0.53668  -0.48373  -0.47503  -0.45651  -0.38116
 Alpha  occ. eigenvalues --   -0.33459
 Alpha virt. eigenvalues --   -0.03377   0.05055   0.26111   0.31245   0.46438
 Alpha virt. eigenvalues --    0.47206   0.47636   0.58998   0.83686   0.94539
 Alpha virt. eigenvalues --    0.95291   1.04093   1.09810   1.11761   1.22097
 Alpha virt. eigenvalues --    1.26922   1.28250   1.33728   1.35488   1.37281
 Alpha virt. eigenvalues --    1.60397   1.64382   1.74448   1.76299   1.77699
 Alpha virt. eigenvalues --    1.79487   1.81365   1.85257   1.90569   1.92017
 Alpha virt. eigenvalues --    1.95793   2.08670   2.12392   2.54426   2.60078
 Alpha virt. eigenvalues --    2.71575   2.76056   2.96837   3.02904   3.06952
 Alpha virt. eigenvalues --    3.75632   4.15449   4.42978   4.61923
          Condensed to atoms (all electrons):
               1          2          3          4
     1  F    8.899884   0.300550  -0.043794  -0.017190
     2  C    0.300550   4.229688   0.485734   0.209307
     3  O   -0.043794   0.485734   7.954808  -0.052492
     4  F   -0.017190   0.209307  -0.052492   9.151391
 Mulliken charges:
               1
     1  F   -0.139450
     2  C    0.774721
     3  O   -0.344255
     4  F   -0.291016
 Sum of Mulliken charges =  -0.00000
 Mulliken charges with hydrogens summed into heavy atoms:
               1
     1  F   -0.139450
     2  C    0.774721
     3  O   -0.344255
     4  F   -0.291016
 Electronic spatial extent (au):  <R**2>=            225.5252
 Charge=             -0.0000 electrons
 Dipole moment (field-independent basis, Debye):
    X=              1.3183    Y=             -1.1631    Z=             -0.1832  Tot=              1.7676
 Quadrupole moment (field-independent basis, Debye-Ang):
   XX=            -20.8555   YY=            -22.4388   ZZ=            -18.6895
   XY=             -0.5966   XZ=             -0.0090   YZ=              0.2866
 Traceless Quadrupole moment (field-independent basis, Debye-Ang):
   XX=             -0.1942   YY=             -1.7775   ZZ=              1.9717
   XY=             -0.5966   XZ=             -0.0090   YZ=              0.2866
 Octapole moment (field-independent basis, Debye-Ang**2):
  XXX=              1.5124  YYY=             -8.9540  ZZZ=              0.8011  XYY=              0.3836
  XXY=             -1.7739  XXZ=              0.4543  XZZ=              0.2917  YZZ=             -1.9512
  YYZ=              0.6388  XYZ=             -0.0120
 Hexadecapole moment (field-independent basis, Debye-Ang**3):
 XXXX=           -100.5629 YYYY=            -94.2134 ZZZZ=            -12.7782 XXXY=             -2.2281
 XXXZ=              0.3768 YYYX=             -2.4008 YYYZ=              3.1886 ZZZX=              0.4229
 ZZZY=              2.7755 XXYY=            -32.5859 XXZZ=            -19.2168 YYZZ=            -17.0951
 XXYZ=              0.7500 YYXZ=              0.1685 ZZXY=             -0.6273
 N-N= 1.094452982525D+02 E-N=-9.599823311185D+02  KE= 3.099802203474D+02
 Unable to Open any file for archive entry.
 1\1\GINC-SPARTAN-BM144\ADMP\RB3LYP\6-31G(d)\C1F2O1\AKHALILOV\19-Mar-20
 25\0\\# B3LYP/6-31G(d) ADMP int=ultrafine Temperature=800\\CF2O ADMP t
 hermal decomposition simulation targeting 800K\\0,1\F,1.2324082616,-0.
 5831184048,0.0567968654\C,0.1170154492,0.0858419927,-0.1008712432\O,0.
 0000473527,1.3487115926,-0.0706796875\F,-1.3063588339,-0.6065937205,0.
 0664224628\\Version=ES64L-G16RevC.01\HF=-312.9434025\RMSD=2.000e+00\RM
 SF=6.164e-02\Dipole=0.5186615,-0.4576086,-0.0720694\Quadrupole=-0.1443
 97,-1.3215424,1.4659394,-0.4435429,-0.006725,0.2130642\PG=C01 [X(C1F2O
 1)]\\@
 The archive entry for this job was punched.


 THE REASON MAN'S BEST FRIEND IS A DOG IS BECAUSE
 HE WAGS HIS TAIL INSTEAD OF HIS TONGUE.
 Job cpu time:       0 days  0 hours  4 minutes 12.2 seconds.
 Elapsed time:       0 days  0 hours  1 minutes 16.8 seconds.
 File lengths (MBytes):  RWF=      6 Int=      0 D2E=      0 Chk=      2 Scr=      1
 Normal termination of Gaussian 16 at Wed Mar 19 16:19:07 2025.
