 Entering Gaussian System, Link 0=g16
 Input=Na_ADMP_600K.gjf
 Output=Na_ADMP_600K.log
 Initial command:
 /apps/easybuild-2022/easybuild/software/Compiler/NVHPC/22.11-CUDA-11.7.0/Gaussian/g16c01-CUDA-11.7.0/g16/l1.exe "/tmp/Gau-76606.inp" -scrdir="/tmp/"
 Default is to use a total of   4 processors:
                                4 via shared-memory
                                1 via Linda
 Entering Link 1 = /apps/easybuild-2022/easybuild/software/Compiler/NVHPC/22.11-CUDA-11.7.0/Gaussian/g16c01-CUDA-11.7.0/g16/l1.exe PID=     76607.
  
 Copyright (c) 1988-2019, Gaussian, Inc.  All Rights Reserved.
  
 This is part of the Gaussian(R) 16 program.  It is based on
 the Gaussian(R) 09 system (copyright 2009, Gaussian, Inc.),
 the Gaussian(R) 03 system (copyright 2003, Gaussian, Inc.),
 the Gaussian(R) 98 system (copyright 1998, Gaussian, Inc.),
 the Gaussian(R) 94 system (copyright 1995, Gaussian, Inc.),
 the Gaussian 92(TM) system (copyright 1992, Gaussian, Inc.),
 the Gaussian 90(TM) system (copyright 1990, Gaussian, Inc.),
 the Gaussian 88(TM) system (copyright 1988, Gaussian, Inc.),
 the Gaussian 86(TM) system (copyright 1986, Carnegie Mellon
 University), and the Gaussian 82(TM) system (copyright 1983,
 Carnegie Mellon University). Gaussian is a federally registered
 trademark of Gaussian, Inc.
  
 This software contains proprietary and confidential information,
 including trade secrets, belonging to Gaussian, Inc.
  
 This software is provided under written license and may be
 used, copied, transmitted, or stored only in accord with that
 written license.
  
 The following legend is applicable only to US Government
 contracts under FAR:
  
                    RESTRICTED RIGHTS LEGEND
  
 Use, reproduction and disclosure by the US Government is
 subject to restrictions as set forth in subparagraphs (a)
 and (c) of the Commercial Computer Software - Restricted
 Rights clause in FAR 52.227-19.
  
 Gaussian, Inc.
 340 Quinnipiac St., Bldg. 40, Wallingford CT 06492
  
  
 ---------------------------------------------------------------
 Warning -- This program may not be used in any manner that
 competes with the business of Gaussian, Inc. or will provide
 assistance to any competitor of Gaussian, Inc.  The licensee
 of this program is prohibited from giving any competitor of
 Gaussian, Inc. access to this program.  By using this program,
 the user acknowledges that Gaussian, Inc. is engaged in the
 business of creating and licensing software in the field of
 computational chemistry and represents and warrants to the
 licensee that it is not a competitor of Gaussian, Inc. and that
 it will not use this program in any manner prohibited above.
 ---------------------------------------------------------------
  

 Cite this work as:
 Gaussian 16, Revision C.01,
 M. J. Frisch, G. W. Trucks, H. B. Schlegel, G. E. Scuseria, 
 M. A. Robb, J. R. Cheeseman, G. Scalmani, V. Barone, 
 G. A. Petersson, H. Nakatsuji, X. Li, M. Caricato, A. V. Marenich, 
 J. Bloino, B. G. Janesko, R. Gomperts, B. Mennucci, H. P. Hratchian, 
 J. V. Ortiz, A. F. Izmaylov, J. L. Sonnenberg, D. Williams-Young, 
 F. Ding, F. Lipparini, F. Egidi, J. Goings, B. Peng, A. Petrone, 
 T. Henderson, D. Ranasinghe, V. G. Zakrzewski, J. Gao, N. Rega, 
 G. Zheng, W. Liang, M. Hada, M. Ehara, K. Toyota, R. Fukuda, 
 J. Hasegawa, M. Ishida, T. Nakajima, Y. Honda, O. Kitao, H. Nakai, 
 T. Vreven, K. Throssell, J. A. Montgomery, Jr., J. E. Peralta, 
 F. Ogliaro, M. J. Bearpark, J. J. Heyd, E. N. Brothers, K. N. Kudin, 
 V. N. Staroverov, T. A. Keith, R. Kobayashi, J. Normand, 
 K. Raghavachari, A. P. Rendell, J. C. Burant, S. S. Iyengar, 
 J. Tomasi, M. Cossi, J. M. Millam, M. Klene, C. Adamo, R. Cammi, 
 J. W. Ochterski, R. L. Martin, K. Morokuma, O. Farkas, 
 J. B. Foresman, and D. J. Fox, Gaussian, Inc., Wallingford CT, 2019.
 
 ******************************************
 Gaussian 16:  ES64L-G16RevC.01  3-Jul-2019
                19-Mar-2025 
 ******************************************
 %chk=Na_ADMP TRJTRY RSTF=10_600K.chk
 %mem=8GB
 %nprocshared=8
 Will use up to    8 processors via shared memory.
 -----------------------------------
 # B3LYP/6-31G(d) ADMP int=ultrafine
 -----------------------------------
 1/26=4,29=20000,38=1,172=1/1,21;
 2/12=2,17=6,18=5,29=2,40=1/2;
 3/5=1,6=6,7=1,11=2,25=1,30=1,65=-1,71=1,74=-5,75=-5,89=400,90=600/1,2,3;
 4//1;
 5/5=2,14=200,38=5/2;
 6/7=2,8=2,9=2,10=2,28=1/1;
 7/7=1,127=-100/1,2,3,16;
 1/26=4/21(2);
 2/29=1/2;
 99/12=1/99;
 2/29=1/2;
 3/5=1,6=6,7=1,11=2,25=1,30=1,65=-1,71=1,74=-5,75=-5,89=400,90=600/1,2,3;
 5/5=2,14=100/2;
 7/7=1,127=-100/1,2,3,16;
 1/26=4/21(-4);
 2/29=1/2;
 6/7=2,8=2,9=2,10=2,19=2,28=1/1;
 99/9=1,12=1/99;
 -------------------------------------------------------
 Na ADMP thermal decomposition simulation targeting 600K
 -------------------------------------------------------
 Symbolic Z-matrix:
 Charge =  0 Multiplicity = 2
 Na                    0.        0.        0. 
 
 TRJ-TRJ-TRJ-TRJ-TRJ-TRJ-TRJ-TRJ-TRJ-TRJ-TRJ-TRJ-TRJ-TRJ-TRJ-TRJ-TRJ-TRJ
 ------------------------------------------------------------------------
 INPUT DATA FOR L121
 ------------------------------------------------------------------------

 General parameters:
 Maximum Steps                =      50
 Random Number Generator Seed =    398465
 Time Step                    =  0.10000 femtosec
 Ficticious electronic mass   =  0.10000 amu
 MW individual basis funct.   = True 
 Initial nuclear kin. energy  =  0.10000 hartree
 Initial electr. kin. energy  =  0.00000 hartree
   Initial electr. KE scheme  =  0
 Multitime step - NDtrC       =       1
 Multitime step - NDtrP       =       1
 No Thermostats chosen to control nuclear temperature

 Integration parameters:

 Follow Rxn Path (DVV)        = False
 Constraint Scheme            =      10
 Projection of angular mom.   = True 
 Rotate density with nuclei   = True 
 ------------------------------------------------------------------------
 TRJ-TRJ-TRJ-TRJ-TRJ-TRJ-TRJ-TRJ-TRJ-TRJ-TRJ-TRJ-TRJ-TRJ-TRJ-TRJ-TRJ-TRJ
 ---------------------------------------------------------------------------------------------------
                            Z-MATRIX (ANGSTROMS AND DEGREES)
   CD    Cent   Atom    N1       Length/X        N2       Alpha/Y        N3        Beta/Z          J
 ---------------------------------------------------------------------------------------------------
      1      1  Na       0   0.000000          0.000000          0.000000
 ---------------------------------------------------------------------------------------------------
                         Z-Matrix orientation:                         
 ---------------------------------------------------------------------
 Center     Atomic      Atomic             Coordinates (Angstroms)
 Number     Number       Type             X           Y           Z
 ---------------------------------------------------------------------
      1         11           0        0.000000    0.000000    0.000000
 ---------------------------------------------------------------------
 Symmetry turned off by external request.
 Stoichiometry    Na(2)
 Framework group  OH[O(Na)]
 Deg. of freedom     0
 Full point group                 OH      NOp  48
 Standard basis: 6-31G(d) (6D, 7F)
    19 basis functions,    52 primitive gaussians,    19 cartesian basis functions
     6 alpha electrons        5 beta electrons
       nuclear repulsion energy         0.0000000000 Hartrees.
 NAtoms=    1 NActive=    1 NUniq=    1 SFac= 1.00D+00 NAtFMM=   60 NAOKFM=F Big=F
 Integral buffers will be    131072 words long.
 Raffenetti 2 integral format.
 Two-electron integral symmetry is turned off.
 One-electron integrals computed using PRISM.
 NBasis=    19 RedAO= T EigKep=  1.00D-02  NBF=    19
 NBsUse=    19 1.00D-06 EigRej= -1.00D+00 NBFU=    19
 ExpMin= 2.60D-02 ExpMax= 9.99D+03 ExpMxC= 1.50D+03 IAcc=3 IRadAn=         5 AccDes= 0.00D+00
 Harris functional with IExCor=  402 and IRadAn=       5 diagonalized for initial guess.
 HarFok:  IExCor=  402 AccDes= 0.00D+00 IRadAn=         5 IDoV= 1 UseB2=F ITyADJ=14
 ICtDFT=  3500011 ScaDFX=  1.000000  1.000000  1.000000  1.000000
 FoFCou: FMM=F IPFlag=           0 FMFlag=      100000 FMFlg1=           0
         NFxFlg=           0 DoJE=T BraDBF=F KetDBF=T FulRan=T
         wScrn=  0.000000 ICntrl=       500 IOpCl=  0 I1Cent=   200000004 NGrid=           0
         NMat0=    1 NMatS0=      1 NMatT0=    0 NMatD0=    1 NMtDS0=    0 NMtDT0=    0
 Symmetry not used in FoFCou.
 Initial guess <Sx>= 0.0000 <Sy>= 0.0000 <Sz>= 0.5000 <S**2>= 0.7500 S= 0.5000
 Keep R1 and R2 ints in memory in canonical form, NReq=6939677.
 Requested convergence on RMS density matrix=1.00D-08 within 128 cycles.
 Requested convergence on MAX density matrix=1.00D-06.
 Requested convergence on             energy=1.00D-06.
 No special actions if energy rises.
 SCF Done:  E(UB3LYP) =  -162.279880917     A.U. after    6 cycles
            NFock=  6  Conv=0.81D-08     -V/T= 2.0048
 <Sx>= 0.0000 <Sy>= 0.0000 <Sz>= 0.5000 <S**2>= 0.7500 S= 0.5000
 <L.S>=  0.00000000000    
 Annihilation of the first spin contaminant:
 S**2 before annihilation     0.7500,   after     0.7500

 **********************************************************************

            Population analysis using the SCF Density.

 **********************************************************************

 Alpha  occ. eigenvalues --  -38.49963  -2.23573  -1.16693  -1.16693  -1.16693
 Alpha  occ. eigenvalues --   -0.12897
 Alpha virt. eigenvalues --   -0.02021  -0.02021  -0.02021   0.05994   0.11186
 Alpha virt. eigenvalues --    0.11186   0.11186   0.33033   0.33033   0.33033
 Alpha virt. eigenvalues --    0.33033   0.33033   0.47458
  Beta  occ. eigenvalues --  -38.49826  -2.23287  -1.16505  -1.16505  -1.16505
  Beta virt. eigenvalues --   -0.06464   0.00622   0.00622   0.00622   0.07487
  Beta virt. eigenvalues --    0.13119   0.13119   0.13119   0.35170   0.35170
  Beta virt. eigenvalues --    0.35170   0.35170   0.35170   0.49175
          Condensed to atoms (all electrons):
               1
     1  Na  11.000000
          Atomic-Atomic Spin Densities.
               1
     1  Na   1.000000
 Mulliken charges and spin densities:
               1          2
     1  Na   0.000000   1.000000
 Sum of Mulliken charges =   0.00000   1.00000
 Mulliken charges and spin densities with hydrogens summed into heavy atoms:
               1          2
     1  Na   0.000000   1.000000
 Electronic spatial extent (au):  <R**2>=             25.8243
 Charge=              0.0000 electrons
 Dipole moment (field-independent basis, Debye):
    X=              0.0000    Y=              0.0000    Z=             -0.0000  Tot=              0.0000
 Quadrupole moment (field-independent basis, Debye-Ang):
   XX=            -11.5782   YY=            -11.5782   ZZ=            -11.5782
   XY=              0.0000   XZ=             -0.0000   YZ=             -0.0000
 Traceless Quadrupole moment (field-independent basis, Debye-Ang):
   XX=              0.0000   YY=             -0.0000   ZZ=             -0.0000
   XY=              0.0000   XZ=             -0.0000   YZ=             -0.0000
 Octapole moment (field-independent basis, Debye-Ang**2):
  XXX=              0.0000  YYY=              0.0000  ZZZ=             -0.0000  XYY=              0.0000
  XXY=              0.0000  XXZ=             -0.0000  XZZ=              0.0000  YZZ=              0.0000
  YYZ=             -0.0000  XYZ=             -0.0000
 Hexadecapole moment (field-independent basis, Debye-Ang**3):
 XXXX=            -48.8068 YYYY=            -48.8068 ZZZZ=            -48.8068 XXXY=              0.0000
 XXXZ=             -0.0000 YYYX=              0.0000 YYYZ=             -0.0000 ZZZX=             -0.0000
 ZZZY=             -0.0000 XXYY=            -16.2689 XXZZ=            -16.2689 YYZZ=            -16.2689
 XXYZ=             -0.0000 YYXZ=             -0.0000 ZZXY=              0.0000
 N-N= 0.000000000000D+00 E-N=-3.891708403773D+02  KE= 1.615121886809D+02
                          Isotropic Fermi Contact Couplings
        Atom                 a.u.       MegaHertz       Gauss      10(-4) cm-1
     1  Na(23)             0.53291     630.44609     224.95884     210.29418
 --------------------------------------------------------
       Center         ----  Spin Dipole Couplings  ----
                      3XX-RR        3YY-RR        3ZZ-RR
 --------------------------------------------------------
     1   Atom       -0.000000      0.000000     -0.000000
 --------------------------------------------------------
                        XY            XZ            YZ
 --------------------------------------------------------
     1   Atom       -0.000000      0.000000      0.000000
 --------------------------------------------------------


 ---------------------------------------------------------------------------------
              Anisotropic Spin Dipole Couplings in Principal Axis System
 ---------------------------------------------------------------------------------

       Atom             a.u.   MegaHertz   Gauss  10(-4) cm-1        Axes

              Baa    -0.0000    -0.000    -0.000    -0.000  0.8558  0.3643 -0.3673
     1 Na(23) Bbb     0.0000     0.000     0.000     0.000  0.2524  0.3256  0.9112
              Bcc     0.0000     0.000     0.000     0.000 -0.4515  0.8725 -0.1867
 

 ---------------------------------------------------------------------------------

 Calling FoFJK, ICntrl=      2127 FMM=F ISym2X=0 I1Cent= 0 IOpClX= 1 NMat=1 NMatS=1 NMatT=0.
 -------------------------------------------------------------------
 Center     Atomic                   Forces (Hartrees/Bohr)
 Number     Number              X              Y              Z
 -------------------------------------------------------------------
      1       11          -0.000000000   -0.000000000   -0.000000000
 -------------------------------------------------------------------
 Cartesian Forces:  Max     0.000000000 RMS     0.000000000
 TRJ-TRJ-TRJ-TRJ-TRJ-TRJ-TRJ-TRJ-TRJ-TRJ-TRJ-TRJ-TRJ-TRJ-TRJ-TRJ-TRJ-TRJ

 ADMP step      0
 Frobenius norm of [F,P] =     1.441116D-13
 Current gradient on entry to l121
 I=    1 X=   0.000000000000D+00 Y=   0.000000000000D+00 Z=   0.000000000000D+00

 Summary information for step      0
 Time (fs)     0.000000
 EKinC      =            NaN; EKinPA =      0.0000000; EKinPB =      0.0000000
 EKin       =            NaN; EPot   =   -162.2798809; ETot   =            NaN
 ETot-EKinP =            NaN
 Integrand for the Velocity-Velocity Auto-Correlation  Function =                  NaN
 Angular momentum
   JX =               NaN  JY =               NaN  JZ =               NaN
 Jtot =               NaN H-BAR;  J (Quantum Number) =               NaN
 Total energy               NaN A.U.
 Total angular momentum            NaN h-bar
 Tr(PA)-NA =  5.329D-15
 Tr(PA**2-PA) =  8.882D-15
 Tr[(PA**2-PA)**2] =  2.490D-16
 Tr(PB)-NB = -9.770D-15
 Tr(PB**2-PB) = -4.441D-15
 Tr[(PB**2-PB)**2] =  2.594D-16
 Cartesian coordinates:
 I=    1 X=   0.000000000000D+00 Y=   0.000000000000D+00 Z=   0.000000000000D+00
 MW Cartesian velocity:
 I=    1 X=                  NaN Y=                  NaN Z=                  NaN
 DVelV1: Constraint failed to achieve idempotency:
         ICType= 10 MaxIt=  30 Ademp= 1.58D+00 Conv= 1.00D-12
 DVelV1: Constraint failed to achieve idempotency:
         ICType= 10 MaxIt=  30 Ademp= 1.05D+00 Conv= 1.00D-12
 TRJ-TRJ-TRJ-TRJ-TRJ-TRJ-TRJ-TRJ-TRJ-TRJ-TRJ-TRJ-TRJ-TRJ-TRJ-TRJ-TRJ-TRJ
                          Input orientation:                          
 ---------------------------------------------------------------------
 Center     Atomic      Atomic             Coordinates (Angstroms)
 Number     Number       Type             X           Y           Z
 ---------------------------------------------------------------------
      1         11           0             NaN         NaN         NaN
 ---------------------------------------------------------------------
 Symmetry turned off by external request.
 DSYEV returned Info=           2 IAlg= 2 N=     3 NDim=     3 NE2=           2.
 Diagonalization in DiagDN failed.
 Error termination via Lnk1e in /apps/easybuild-2022/easybuild/software/Compiler/NVHPC/22.11-CUDA-11.7.0/Gaussian/g16c01-CUDA-11.7.0/g16/l202.exe at Wed Mar 19 15:11:24 2025.
 Job cpu time:       0 days  0 hours  0 minutes  6.5 seconds.
 Elapsed time:       0 days  0 hours  0 minutes  2.0 seconds.
 File lengths (MBytes):  RWF=      6 Int=      0 D2E=      0 Chk=      1 Scr=      1
