 Entering Gaussian System, Link 0=g16
 Input=HCl_ADMP_600K.gjf
 Output=HCl_ADMP_600K.log
 Initial command:
 /apps/easybuild-2022/easybuild/software/Compiler/NVHPC/22.11-CUDA-11.7.0/Gaussian/g16c01-CUDA-11.7.0/g16/l1.exe "/tmp/Gau-58379.inp" -scrdir="/tmp/"
 Default is to use a total of   4 processors:
                                4 via shared-memory
                                1 via Linda
 Entering Link 1 = /apps/easybuild-2022/easybuild/software/Compiler/NVHPC/22.11-CUDA-11.7.0/Gaussian/g16c01-CUDA-11.7.0/g16/l1.exe PID=     58380.
  
 Copyright (c) 1988-2019, Gaussian, Inc.  All Rights Reserved.
  
 This is part of the Gaussian(R) 16 program.  It is based on
 the Gaussian(R) 09 system (copyright 2009, Gaussian, Inc.),
 the Gaussian(R) 03 system (copyright 2003, Gaussian, Inc.),
 the Gaussian(R) 98 system (copyright 1998, Gaussian, Inc.),
 the Gaussian(R) 94 system (copyright 1995, Gaussian, Inc.),
 the Gaussian 92(TM) system (copyright 1992, Gaussian, Inc.),
 the Gaussian 90(TM) system (copyright 1990, Gaussian, Inc.),
 the Gaussian 88(TM) system (copyright 1988, Gaussian, Inc.),
 the Gaussian 86(TM) system (copyright 1986, Carnegie Mellon
 University), and the Gaussian 82(TM) system (copyright 1983,
 Carnegie Mellon University). Gaussian is a federally registered
 trademark of Gaussian, Inc.
  
 This software contains proprietary and confidential information,
 including trade secrets, belonging to Gaussian, Inc.
  
 This software is provided under written license and may be
 used, copied, transmitted, or stored only in accord with that
 written license.
  
 The following legend is applicable only to US Government
 contracts under FAR:
  
                    RESTRICTED RIGHTS LEGEND
  
 Use, reproduction and disclosure by the US Government is
 subject to restrictions as set forth in subparagraphs (a)
 and (c) of the Commercial Computer Software - Restricted
 Rights clause in FAR 52.227-19.
  
 Gaussian, Inc.
 340 Quinnipiac St., Bldg. 40, Wallingford CT 06492
  
  
 ---------------------------------------------------------------
 Warning -- This program may not be used in any manner that
 competes with the business of Gaussian, Inc. or will provide
 assistance to any competitor of Gaussian, Inc.  The licensee
 of this program is prohibited from giving any competitor of
 Gaussian, Inc. access to this program.  By using this program,
 the user acknowledges that Gaussian, Inc. is engaged in the
 business of creating and licensing software in the field of
 computational chemistry and represents and warrants to the
 licensee that it is not a competitor of Gaussian, Inc. and that
 it will not use this program in any manner prohibited above.
 ---------------------------------------------------------------
  

 Cite this work as:
 Gaussian 16, Revision C.01,
 M. J. Frisch, G. W. Trucks, H. B. Schlegel, G. E. Scuseria, 
 M. A. Robb, J. R. Cheeseman, G. Scalmani, V. Barone, 
 G. A. Petersson, H. Nakatsuji, X. Li, M. Caricato, A. V. Marenich, 
 J. Bloino, B. G. Janesko, R. Gomperts, B. Mennucci, H. P. Hratchian, 
 J. V. Ortiz, A. F. Izmaylov, J. L. Sonnenberg, D. Williams-Young, 
 F. Ding, F. Lipparini, F. Egidi, J. Goings, B. Peng, A. Petrone, 
 T. Henderson, D. Ranasinghe, V. G. Zakrzewski, J. Gao, N. Rega, 
 G. Zheng, W. Liang, M. Hada, M. Ehara, K. Toyota, R. Fukuda, 
 J. Hasegawa, M. Ishida, T. Nakajima, Y. Honda, O. Kitao, H. Nakai, 
 T. Vreven, K. Throssell, J. A. Montgomery, Jr., J. E. Peralta, 
 F. Ogliaro, M. J. Bearpark, J. J. Heyd, E. N. Brothers, K. N. Kudin, 
 V. N. Staroverov, T. A. Keith, R. Kobayashi, J. Normand, 
 K. Raghavachari, A. P. Rendell, J. C. Burant, S. S. Iyengar, 
 J. Tomasi, M. Cossi, J. M. Millam, M. Klene, C. Adamo, R. Cammi, 
 J. W. Ochterski, R. L. Martin, K. Morokuma, O. Farkas, 
 J. B. Foresman, and D. J. Fox, Gaussian, Inc., Wallingford CT, 2019.
 
 ******************************************
 Gaussian 16:  ES64L-G16RevC.01  3-Jul-2019
                19-Mar-2025 
 ******************************************
 %chk=HCl_ADMP TRJTRY RSTF=10_600K.chk
 %mem=8GB
 %nprocshared=8
 Will use up to    8 processors via shared memory.
 -----------------------------------
 # B3LYP/6-31G(d) ADMP int=ultrafine
 -----------------------------------
 1/26=4,29=20000,38=1,172=1/1,21;
 2/12=2,17=6,18=5,29=2,40=1/2;
 3/5=1,6=6,7=1,11=2,25=1,30=1,65=-1,71=1,74=-5,75=-5,89=400,90=600/1,2,3;
 4//1;
 5/5=2,14=200,38=5/2;
 6/7=2,8=2,9=2,10=2,28=1/1;
 7/7=1,127=-100/1,2,3,16;
 1/26=4/21(2);
 2/29=1/2;
 99/12=1/99;
 2/29=1/2;
 3/5=1,6=6,7=1,11=2,25=1,30=1,65=-1,71=1,74=-5,75=-5,89=400,90=600/1,2,3;
 5/5=2,14=100/2;
 7/7=1,127=-100/1,2,3,16;
 1/26=4/21(-4);
 2/29=1/2;
 6/7=2,8=2,9=2,10=2,19=2,28=1/1;
 99/9=1,12=1/99;
 --------------------------------------------------------
 HCl ADMP thermal decomposition simulation targeting 600K
 --------------------------------------------------------
 Symbolic Z-matrix:
 Charge =  0 Multiplicity = 1
 Cl                    0.68283   0.        0. 
 H                    -0.68283   0.        0. 
 
 TRJ-TRJ-TRJ-TRJ-TRJ-TRJ-TRJ-TRJ-TRJ-TRJ-TRJ-TRJ-TRJ-TRJ-TRJ-TRJ-TRJ-TRJ
 ------------------------------------------------------------------------
 INPUT DATA FOR L121
 ------------------------------------------------------------------------

 General parameters:
 Maximum Steps                =      50
 Random Number Generator Seed =    398465
 Time Step                    =  0.10000 femtosec
 Ficticious electronic mass   =  0.10000 amu
 MW individual basis funct.   = True 
 Initial nuclear kin. energy  =  0.10000 hartree
 Initial electr. kin. energy  =  0.00000 hartree
   Initial electr. KE scheme  =  0
 Multitime step - NDtrC       =       1
 Multitime step - NDtrP       =       1
 No Thermostats chosen to control nuclear temperature

 Integration parameters:

 Follow Rxn Path (DVV)        = False
 Constraint Scheme            =      10
 Projection of angular mom.   = True 
 Rotate density with nuclei   = True 
 ------------------------------------------------------------------------
 TRJ-TRJ-TRJ-TRJ-TRJ-TRJ-TRJ-TRJ-TRJ-TRJ-TRJ-TRJ-TRJ-TRJ-TRJ-TRJ-TRJ-TRJ
 ---------------------------------------------------------------------------------------------------
                            Z-MATRIX (ANGSTROMS AND DEGREES)
   CD    Cent   Atom    N1       Length/X        N2       Alpha/Y        N3        Beta/Z          J
 ---------------------------------------------------------------------------------------------------
      1      1  Cl       0   0.682834          0.000000          0.000000
      2      2  H        0  -0.682834          0.000000          0.000000
 ---------------------------------------------------------------------------------------------------
                         Z-Matrix orientation:                         
 ---------------------------------------------------------------------
 Center     Atomic      Atomic             Coordinates (Angstroms)
 Number     Number       Type             X           Y           Z
 ---------------------------------------------------------------------
      1         17           0        0.682834    0.000000    0.000000
      2          1           0       -0.682834    0.000000    0.000000
 ---------------------------------------------------------------------
 Symmetry turned off by external request.
 Stoichiometry    ClH
 Framework group  C*V[C*(HCl)]
 Deg. of freedom     1
 Full point group                 C*V     NOp   4
 Rotational constants (GHZ):           0.0000000         276.6186531         276.6186531
 Standard basis: 6-31G(d) (6D, 7F)
    21 basis functions,    56 primitive gaussians,    21 cartesian basis functions
     9 alpha electrons        9 beta electrons
       nuclear repulsion energy         6.5872617544 Hartrees.
 NAtoms=    2 NActive=    2 NUniq=    2 SFac= 1.00D+00 NAtFMM=   60 NAOKFM=F Big=F
 Integral buffers will be    131072 words long.
 Raffenetti 2 integral format.
 Two-electron integral symmetry is turned off.
 One-electron integrals computed using PRISM.
 NBasis=    21 RedAO= T EigKep=  1.97D-02  NBF=    21
 NBsUse=    21 1.00D-06 EigRej= -1.00D+00 NBFU=    21
 ExpMin= 1.43D-01 ExpMax= 2.52D+04 ExpMxC= 3.78D+03 IAcc=3 IRadAn=         5 AccDes= 0.00D+00
 Harris functional with IExCor=  402 and IRadAn=       5 diagonalized for initial guess.
 HarFok:  IExCor=  402 AccDes= 0.00D+00 IRadAn=         5 IDoV= 1 UseB2=F ITyADJ=14
 ICtDFT=  3500011 ScaDFX=  1.000000  1.000000  1.000000  1.000000
 FoFCou: FMM=F IPFlag=           0 FMFlag=      100000 FMFlg1=           0
         NFxFlg=           0 DoJE=T BraDBF=F KetDBF=T FulRan=T
         wScrn=  0.000000 ICntrl=       500 IOpCl=  0 I1Cent=   200000004 NGrid=           0
         NMat0=    1 NMatS0=      1 NMatT0=    0 NMatD0=    1 NMtDS0=    0 NMtDT0=    0
 Symmetry not used in FoFCou.
 Keep R1 ints in memory in canonical form, NReq=6931411.
 Requested convergence on RMS density matrix=1.00D-08 within 128 cycles.
 Requested convergence on MAX density matrix=1.00D-06.
 Requested convergence on             energy=1.00D-06.
 No special actions if energy rises.
 Integral accuracy reduced to 1.0D-05 until final iterations.
 Initial convergence to 1.0D-05 achieved.  Increase integral accuracy.
 SCF Done:  E(RB3LYP) =  -460.792819072     A.U. after    9 cycles
            NFock=  9  Conv=0.87D-08     -V/T= 2.0032

 **********************************************************************

            Population analysis using the SCF Density.

 **********************************************************************

 Alpha  occ. eigenvalues -- -101.55929  -9.47542  -7.23996  -7.22920  -7.22920
 Alpha  occ. eigenvalues --   -0.83819  -0.46672  -0.33010  -0.33010
 Alpha virt. eigenvalues --   -0.01620   0.37781   0.42222   0.43697   0.43697
 Alpha virt. eigenvalues --    0.66939   0.83720   0.83720   0.86548   0.86548
 Alpha virt. eigenvalues --    1.10900   4.19914
          Condensed to atoms (all electrons):
               1          2
     1  Cl  16.989372   0.237377
     2  H    0.237377   0.535874
 Mulliken charges:
               1
     1  Cl  -0.226749
     2  H    0.226749
 Sum of Mulliken charges =   0.00000
 Mulliken charges with hydrogens summed into heavy atoms:
               1
     1  Cl   0.000000
 Electronic spatial extent (au):  <R**2>=             59.6938
 Charge=              0.0000 electrons
 Dipole moment (field-independent basis, Debye):
    X=             -1.5031    Y=             -0.0000    Z=              0.0000  Tot=              1.5031
 Quadrupole moment (field-independent basis, Debye-Ang):
   XX=            -12.0166   YY=            -13.9808   ZZ=            -13.9808
   XY=              0.0000   XZ=             -0.0000   YZ=              0.0000
 Traceless Quadrupole moment (field-independent basis, Debye-Ang):
   XX=              1.3095   YY=             -0.6547   ZZ=             -0.6547
   XY=              0.0000   XZ=             -0.0000   YZ=              0.0000
 Octapole moment (field-independent basis, Debye-Ang**2):
  XXX=            -22.8881  YYY=              0.0000  ZZZ=             -0.0000  XYY=             -8.7092
  XXY=              0.0000  XXZ=              0.0000  XZZ=             -8.7092  YZZ=              0.0000
  YYZ=             -0.0000  XYZ=              0.0000
 Hexadecapole moment (field-independent basis, Debye-Ang**3):
 XXXX=            -45.2449 YYYY=            -15.6078 ZZZZ=            -15.6078 XXXY=              0.0000
 XXXZ=             -0.0000 YYYX=              0.0000 YYYZ=              0.0000 ZZZX=             -0.0000
 ZZZY=              0.0000 XXYY=            -11.2200 XXZZ=            -11.2200 YYZZ=             -5.2026
 XXYZ=              0.0000 YYXZ=             -0.0000 ZZXY=              0.0000
 N-N= 6.587261754423D+00 E-N=-1.108315901512D+03  KE= 4.593060688325D+02
 Calling FoFJK, ICntrl=      2127 FMM=F ISym2X=0 I1Cent= 0 IOpClX= 0 NMat=1 NMatS=1 NMatT=0.
 -------------------------------------------------------------------
 Center     Atomic                   Forces (Hartrees/Bohr)
 Number     Number              X              Y              Z
 -------------------------------------------------------------------
      1       17          -0.037203266   -0.000000000   -0.000000000
      2        1           0.037203266    0.000000000    0.000000000
 -------------------------------------------------------------------
 Cartesian Forces:  Max     0.037203266 RMS     0.021479315
 TRJ-TRJ-TRJ-TRJ-TRJ-TRJ-TRJ-TRJ-TRJ-TRJ-TRJ-TRJ-TRJ-TRJ-TRJ-TRJ-TRJ-TRJ

 ADMP step      0
 Frobenius norm of [F,P] =     2.579972D-13
 Current gradient on entry to l121
 I=    1 X=   3.720326562603D-02 Y=   0.000000000000D+00 Z=   0.000000000000D+00
 I=    2 X=  -3.720326562603D-02 Y=   0.000000000000D+00 Z=   0.000000000000D+00

 Summary information for step      0
 Time (fs)     0.000000
 EKinC      =      0.1000000; EKinPA =      0.0000000; EKinPB =      0.0000000
 EKin       =      0.1000000; EPot   =   -460.7928191; ETot   =   -460.6928191
 ETot-EKinP =   -460.6928191
 Integrand for the Velocity-Velocity Auto-Correlation  Function =   1.875165883249D-01
 Angular momentum
   JX =  0.0000000000D+00  JY =  0.1932180383D-30  JZ = -0.6225914567D-30
 Jtot =  0.6518844471D-30 H-BAR;  J (Quantum Number) =  0.0000000000D+00
 Total energy  -4.606928191D+02 A.U.
 Total angular momentum   6.518844D-31 h-bar
 Tr(PA)-NA = -1.421D-14
 Tr(PA**2-PA) =  0.000D+00
 Tr[(PA**2-PA)**2] =  5.041D-16
 Cartesian coordinates:
 I=    1 X=   7.229497087604D-02 Y=   0.000000000000D+00 Z=   0.000000000000D+00
 I=    2 X=  -2.508443526206D+00 Y=   0.000000000000D+00 Z=   0.000000000000D+00
 MW Cartesian velocity:
 I=    1 X=  -7.247728058586D+13 Y=   0.000000000000D+00 Z=   0.000000000000D+00
 I=    2 X=   4.269234499577D+14 Y=   0.000000000000D+00 Z=   0.000000000000D+00
 TRJ-TRJ-TRJ-TRJ-TRJ-TRJ-TRJ-TRJ-TRJ-TRJ-TRJ-TRJ-TRJ-TRJ-TRJ-TRJ-TRJ-TRJ
                          Input orientation:                          
 ---------------------------------------------------------------------
 Center     Atomic      Atomic             Coordinates (Angstroms)
 Number     Number       Type             X           Y           Z
 ---------------------------------------------------------------------
      1         17           0        0.037606   -0.000000   -0.000000
      2          1           0       -1.304816    0.000000    0.000000
 ---------------------------------------------------------------------
 Symmetry turned off by external request.
 Stoichiometry    ClH
 Framework group  C*V[C*(HCl)]
 Deg. of freedom     1
 Full point group                 C*V     NOp   4
 Rotational constants (GHZ):           0.0000000         286.2820255         286.2820255
 Standard basis: 6-31G(d) (6D, 7F)
    21 basis functions,    56 primitive gaussians,    21 cartesian basis functions
     9 alpha electrons        9 beta electrons
       nuclear repulsion energy         6.7013334832 Hartrees.
 NAtoms=    2 NActive=    2 NUniq=    2 SFac= 1.00D+00 NAtFMM=   60 NAOKFM=F Big=F
 Integral buffers will be    131072 words long.
 Raffenetti 2 integral format.
 Two-electron integral symmetry is turned off.
 One-electron integrals computed using PRISM.
 NBasis=    21 RedAO= T EigKep=  1.97D-02  NBF=    21
 NBsUse=    21 1.00D-06 EigRej= -1.00D+00 NBFU=    21
 Keep R1 ints in memory in canonical form, NReq=6931411.
 Requested convergence on RMS density matrix=1.00D-08 within 128 cycles.
 Requested convergence on MAX density matrix=1.00D-06.
 Requested convergence on             energy=1.00D-06.
 No special actions if energy rises.
 SCF Done:  E(RB3LYP) =  -460.793950337     A.U. after    1 cycles
            NFock=  1  Conv=0.20D+01     -V/T= 2.0033
 Calling FoFJK, ICntrl=      2127 FMM=F ISym2X=0 I1Cent= 0 IOpClX= 0 NMat=1 NMatS=1 NMatT=0.
 -------------------------------------------------------------------
 Center     Atomic                   Forces (Hartrees/Bohr)
 Number     Number              X              Y              Z
 -------------------------------------------------------------------
      1       17          -0.013785972   -0.000000000   -0.000000000
      2        1           0.013785972    0.000000000    0.000000000
 -------------------------------------------------------------------
 Cartesian Forces:  Max     0.013785972 RMS     0.007959335
 TRJ-TRJ-TRJ-TRJ-TRJ-TRJ-TRJ-TRJ-TRJ-TRJ-TRJ-TRJ-TRJ-TRJ-TRJ-TRJ-TRJ-TRJ

 ADMP step      1
 Frobenius norm of [F,P] =     2.148470D-02
 Current gradient on entry to l121
 I=    1 X=   1.378597181523D-02 Y=   0.000000000000D+00 Z=   0.000000000000D+00
 I=    2 X=  -1.378597181523D-02 Y=   0.000000000000D+00 Z=   0.000000000000D+00

 Summary information for step      1
 Time (fs)     0.100000
 EKinC      =      0.1011185; EKinPA =      0.0000054; EKinPB =      0.0000054
 EKin       =      0.1011293; EPot   =   -460.7939503; ETot   =   -460.6928210
 ETot-EKinP =   -460.6928318
 Adiabaticity Index =    2.3925D-27
 Total Fictitiious Kinetic Energy =      0.0001074
 Integrand for the Velocity-Velocity Auto-Correlation  Function =   1.885624044398D-01
 Angular momentum
   JX = -0.4310067844D-65  JY =  0.2258752847D-30  JZ = -0.7834097855D-30
 Jtot =  0.8153223512D-30 H-BAR;  J (Quantum Number) =  0.0000000000D+00
 Total energy  -4.606928210D+02  Delta-E  -1.975153D-06 A.U.
 Total angular momentum   8.153224D-31  Delta-A   1.634379D-31 h-bar
 Tr(PA)-NA = -1.776D-15
 Tr(PA**2-PA) =  1.243D-14
 Tr[(PA**2-PA)**2] =  3.946D-16
 Cartesian coordinates:
 I=    1 X=   7.106434829416D-02 Y=   0.000000000000D+00 Z=   0.000000000000D+00
 I=    2 X=  -2.465744190259D+00 Y=   0.000000000000D+00 Z=   0.000000000000D+00
 MW Cartesian velocity:
 I=    1 X=  -7.288150033343D+13 Y=   0.000000000000D+00 Z=   0.000000000000D+00
 I=    2 X=   4.293044842319D+14 Y=   0.000000000000D+00 Z=   0.000000000000D+00
 TRJ-TRJ-TRJ-TRJ-TRJ-TRJ-TRJ-TRJ-TRJ-TRJ-TRJ-TRJ-TRJ-TRJ-TRJ-TRJ-TRJ-TRJ
                          Input orientation:                          
 ---------------------------------------------------------------------
 Center     Atomic      Atomic             Coordinates (Angstroms)
 Number     Number       Type             X           Y           Z
 ---------------------------------------------------------------------
      1         17           0        0.036952   -0.000000   -0.000000
      2          1           0       -1.282152    0.000000    0.000000
 ---------------------------------------------------------------------
 Symmetry turned off by external request.
 Stoichiometry    ClH
 Framework group  C*V[C*(HCl)]
 Deg. of freedom     1
 Full point group                 C*V     NOp   4
 Rotational constants (GHZ):           0.0000000         296.4921411         296.4921411
 Standard basis: 6-31G(d) (6D, 7F)
    21 basis functions,    56 primitive gaussians,    21 cartesian basis functions
     9 alpha electrons        9 beta electrons
       nuclear repulsion energy         6.8197865676 Hartrees.
 NAtoms=    2 NActive=    2 NUniq=    2 SFac= 1.00D+00 NAtFMM=   60 NAOKFM=F Big=F
 Integral buffers will be    131072 words long.
 Raffenetti 2 integral format.
 Two-electron integral symmetry is turned off.
 One-electron integrals computed using PRISM.
 NBasis=    21 RedAO= T EigKep=  1.97D-02  NBF=    21
 NBsUse=    21 1.00D-06 EigRej= -1.00D+00 NBFU=    21
 Keep R1 ints in memory in canonical form, NReq=6931411.
 Requested convergence on RMS density matrix=1.00D-08 within 128 cycles.
 Requested convergence on MAX density matrix=1.00D-06.
 Requested convergence on             energy=1.00D-06.
 No special actions if energy rises.
 SCF Done:  E(RB3LYP) =  -460.794149492     A.U. after    1 cycles
            NFock=  1  Conv=0.20D+01     -V/T= 2.0033
 Calling FoFJK, ICntrl=      2127 FMM=F ISym2X=0 I1Cent= 0 IOpClX= 0 NMat=1 NMatS=1 NMatT=0.
 -------------------------------------------------------------------
 Center     Atomic                   Forces (Hartrees/Bohr)
 Number     Number              X              Y              Z
 -------------------------------------------------------------------
      1       17           0.010818970   -0.000000000   -0.000000000
      2        1          -0.010818970    0.000000000    0.000000000
 -------------------------------------------------------------------
 Cartesian Forces:  Max     0.010818970 RMS     0.006246335
 TRJ-TRJ-TRJ-TRJ-TRJ-TRJ-TRJ-TRJ-TRJ-TRJ-TRJ-TRJ-TRJ-TRJ-TRJ-TRJ-TRJ-TRJ

 ADMP step      2
 Frobenius norm of [F,P] =     3.988031D-02
 Current gradient on entry to l121
 I=    1 X=  -1.081896953325D-02 Y=   0.000000000000D+00 Z=   0.000000000000D+00
 I=    2 X=   1.081896953326D-02 Y=   0.000000000000D+00 Z=   0.000000000000D+00

 Summary information for step      2
 Time (fs)     0.200000
 EKinC      =      0.1011838; EKinPA =      0.0000798; EKinPB =      0.0000798
 EKin       =      0.1013434; EPot   =   -460.7941495; ETot   =   -460.6928060
 ETot-EKinP =   -460.6929657
 Adiabaticity Index =    1.9105D-04
 Integrand for the Velocity-Velocity Auto-Correlation  Function =   1.886232592192D-01
 Angular momentum
   JX = -0.1415279588D-64  JY =  0.2061502493D-30  JZ = -0.8028953203D-30
 Jtot =  0.8289383696D-30 H-BAR;  J (Quantum Number) =  0.0000000000D+00
 Total energy  -4.606928060D+02  Delta-E   1.500047D-05 A.U.
 Total angular momentum   8.289384D-31  Delta-A   1.361602D-32 h-bar
 Tr(PA)-NA =  1.776D-15
 Tr(PA**2-PA) =  2.072D-11
 Tr[(PA**2-PA)**2] =  7.394D-13
 Cartesian coordinates:
 I=    1 X=   6.983002942515D-02 Y=   0.000000000000D+00 Z=   0.000000000000D+00
 I=    2 X=  -2.422916602964D+00 Y=   0.000000000000D+00 Z=   0.000000000000D+00
 MW Cartesian velocity:
 I=    1 X=  -7.290502139344D+13 Y=   0.000000000000D+00 Z=   0.000000000000D+00
 I=    2 X=   4.294430337470D+14 Y=   0.000000000000D+00 Z=   0.000000000000D+00
 TRJ-TRJ-TRJ-TRJ-TRJ-TRJ-TRJ-TRJ-TRJ-TRJ-TRJ-TRJ-TRJ-TRJ-TRJ-TRJ-TRJ-TRJ
                          Input orientation:                          
 ---------------------------------------------------------------------
 Center     Atomic      Atomic             Coordinates (Angstroms)
 Number     Number       Type             X           Y           Z
 ---------------------------------------------------------------------
      1         17           0        0.036301   -0.000000   -0.000000
      2          1           0       -1.259542    0.000000    0.000000
 ---------------------------------------------------------------------
 Symmetry turned off by external request.
 Stoichiometry    ClH
 Framework group  C*V[C*(HCl)]
 Deg. of freedom     1
 Full point group                 C*V     NOp   4
 Rotational constants (GHZ):           0.0000000         307.2323821         307.2323821
 Standard basis: 6-31G(d) (6D, 7F)
    21 basis functions,    56 primitive gaussians,    21 cartesian basis functions
     9 alpha electrons        9 beta electrons
       nuclear repulsion energy         6.9422089958 Hartrees.
 NAtoms=    2 NActive=    2 NUniq=    2 SFac= 1.00D+00 NAtFMM=   60 NAOKFM=F Big=F
 Integral buffers will be    131072 words long.
 Raffenetti 2 integral format.
 Two-electron integral symmetry is turned off.
 One-electron integrals computed using PRISM.
 NBasis=    21 RedAO= T EigKep=  1.97D-02  NBF=    21
 NBsUse=    21 1.00D-06 EigRej= -1.00D+00 NBFU=    21
 Keep R1 ints in memory in canonical form, NReq=6931411.
 Requested convergence on RMS density matrix=1.00D-08 within 128 cycles.
 Requested convergence on MAX density matrix=1.00D-06.
 Requested convergence on             energy=1.00D-06.
 No special actions if energy rises.
 SCF Done:  E(RB3LYP) =  -460.793685804     A.U. after    1 cycles
            NFock=  1  Conv=0.20D+01     -V/T= 2.0033
 Calling FoFJK, ICntrl=      2127 FMM=F ISym2X=0 I1Cent= 0 IOpClX= 0 NMat=1 NMatS=1 NMatT=0.
 -------------------------------------------------------------------
 Center     Atomic                   Forces (Hartrees/Bohr)
 Number     Number              X              Y              Z
 -------------------------------------------------------------------
      1       17           0.034521346   -0.000000000   -0.000000000
      2        1          -0.034521346    0.000000000    0.000000000
 -------------------------------------------------------------------
 Cartesian Forces:  Max     0.034521346 RMS     0.019930909
 TRJ-TRJ-TRJ-TRJ-TRJ-TRJ-TRJ-TRJ-TRJ-TRJ-TRJ-TRJ-TRJ-TRJ-TRJ-TRJ-TRJ-TRJ

 ADMP step      3
 Frobenius norm of [F,P] =     5.207841D-02
 Current gradient on entry to l121
 I=    1 X=  -3.452134630732D-02 Y=   0.000000000000D+00 Z=   0.000000000000D+00
 I=    2 X=   3.452134630732D-02 Y=   0.000000000000D+00 Z=   0.000000000000D+00

 Summary information for step      3
 Time (fs)     0.300000
 EKinC      =      0.1001886; EKinPA =      0.0003543; EKinPB =      0.0003543
 EKin       =      0.1008972; EPot   =   -460.7936858; ETot   =   -460.6927886
 ETot-EKinP =   -460.6934972
 Adiabaticity Index =    1.0315D-03
 Integrand for the Velocity-Velocity Auto-Correlation  Function =   1.876933054616D-01
 Angular momentum
   JX = -0.3622943194D-64  JY =  0.1579602325D-30  JZ = -0.7354111914D-30
 Jtot =  0.7521841899D-30 H-BAR;  J (Quantum Number) =  0.0000000000D+00
 Total energy  -4.606927886D+02  Delta-E   1.743599D-05 A.U.
 Total angular momentum   7.521842D-31  Delta-A  -7.675418D-32 h-bar
 Tr(PA)-NA =  1.776D-15
 Tr(PA**2-PA) = -5.151D-13
 Tr[(PA**2-PA)**2] =  1.311D-14
 Cartesian coordinates:
 I=    1 X=   6.859861133226D-02 Y=   0.000000000000D+00 Z=   0.000000000000D+00
 I=    2 X=  -2.380189664897D+00 Y=   0.000000000000D+00 Z=   0.000000000000D+00
 MW Cartesian velocity:
 I=    1 X=  -7.254558375633D+13 Y=   0.000000000000D+00 Z=   0.000000000000D+00
 I=    2 X=   4.273257860407D+14 Y=   0.000000000000D+00 Z=   0.000000000000D+00
 TRJ-TRJ-TRJ-TRJ-TRJ-TRJ-TRJ-TRJ-TRJ-TRJ-TRJ-TRJ-TRJ-TRJ-TRJ-TRJ-TRJ-TRJ
                          Input orientation:                          
 ---------------------------------------------------------------------
 Center     Atomic      Atomic             Coordinates (Angstroms)
 Number     Number       Type             X           Y           Z
 ---------------------------------------------------------------------
      1         17           0        0.035654   -0.000000   -0.000000
      2          1           0       -1.237102    0.000000    0.000000
 ---------------------------------------------------------------------
 Symmetry turned off by external request.
 Stoichiometry    ClH
 Framework group  C*V[C*(HCl)]
 Deg. of freedom     1
 Full point group                 C*V     NOp   4
 Rotational constants (GHZ):           0.0000000         318.4794385         318.4794385
 Standard basis: 6-31G(d) (6D, 7F)
    21 basis functions,    56 primitive gaussians,    21 cartesian basis functions
     9 alpha electrons        9 beta electrons
       nuclear repulsion energy         7.0681358719 Hartrees.
 NAtoms=    2 NActive=    2 NUniq=    2 SFac= 1.00D+00 NAtFMM=   60 NAOKFM=F Big=F
 Integral buffers will be    131072 words long.
 Raffenetti 2 integral format.
 Two-electron integral symmetry is turned off.
 One-electron integrals computed using PRISM.
 NBasis=    21 RedAO= T EigKep=  1.97D-02  NBF=    21
 NBsUse=    21 1.00D-06 EigRej= -1.00D+00 NBFU=    21
 Keep R1 ints in memory in canonical form, NReq=6931411.
 Requested convergence on RMS density matrix=1.00D-08 within 128 cycles.
 Requested convergence on MAX density matrix=1.00D-06.
 Requested convergence on             energy=1.00D-06.
 No special actions if energy rises.
 SCF Done:  E(RB3LYP) =  -460.792864816     A.U. after    1 cycles
            NFock=  1  Conv=0.20D+01     -V/T= 2.0033
 Calling FoFJK, ICntrl=      2127 FMM=F ISym2X=0 I1Cent= 0 IOpClX= 0 NMat=1 NMatS=1 NMatT=0.
 -------------------------------------------------------------------
 Center     Atomic                   Forces (Hartrees/Bohr)
 Number     Number              X              Y              Z
 -------------------------------------------------------------------
      1       17           0.055589466    0.000000000   -0.000000000
      2        1          -0.055589466   -0.000000000    0.000000000
 -------------------------------------------------------------------
 Cartesian Forces:  Max     0.055589466 RMS     0.032094593
 TRJ-TRJ-TRJ-TRJ-TRJ-TRJ-TRJ-TRJ-TRJ-TRJ-TRJ-TRJ-TRJ-TRJ-TRJ-TRJ-TRJ-TRJ

 ADMP step      4
 Frobenius norm of [F,P] =     5.725237D-02
 Current gradient on entry to l121
 I=    1 X=  -5.558946645153D-02 Y=   0.000000000000D+00 Z=   0.000000000000D+00
 I=    2 X=   5.558946645153D-02 Y=   0.000000000000D+00 Z=   0.000000000000D+00

 Summary information for step      4
 Time (fs)     0.400000
 EKinC      =      0.0982252; EKinPA =      0.0009290; EKinPB =      0.0009290
 EKin       =      0.1000831; EPot   =   -460.7928648; ETot   =   -460.6927817
 ETot-EKinP =   -460.6946396
 Adiabaticity Index =    2.5067D-03
 Integrand for the Velocity-Velocity Auto-Correlation  Function =   1.858450852324D-01
 Angular momentum
   JX = -0.7177705028D-64  JY =  0.9791561989D-31  JZ = -0.6425885049D-30
 Jtot =  0.6500057348D-30 H-BAR;  J (Quantum Number) =  0.0000000000D+00
 Total energy  -4.606927817D+02  Delta-E   6.914162D-06 A.U.
 Total angular momentum   6.500057D-31  Delta-A  -1.021785D-31 h-bar
 Tr(PA)-NA =  3.553D-15
 Tr(PA**2-PA) = -1.828D-12
 Tr[(PA**2-PA)**2] =  4.510D-14
 Cartesian coordinates:
 I=    1 X=   6.737644908362D-02 Y=   0.000000000000D+00 Z=   0.000000000000D+00
 I=    2 X=  -2.337783880049D+00 Y=   0.000000000000D+00 Z=   0.000000000000D+00
 MW Cartesian velocity:
 I=    1 X=  -7.183122575032D+13 Y=   0.000000000000D+00 Z=   0.000000000000D+00
 I=    2 X=   4.231178993490D+14 Y=   0.000000000000D+00 Z=   0.000000000000D+00
 TRJ-TRJ-TRJ-TRJ-TRJ-TRJ-TRJ-TRJ-TRJ-TRJ-TRJ-TRJ-TRJ-TRJ-TRJ-TRJ-TRJ-TRJ
                          Input orientation:                          
 ---------------------------------------------------------------------
 Center     Atomic      Atomic             Coordinates (Angstroms)
 Number     Number       Type             X           Y           Z
 ---------------------------------------------------------------------
      1         17           0        0.035015   -0.000000   -0.000000
      2          1           0       -1.214935    0.000000    0.000000
 ---------------------------------------------------------------------
 Symmetry turned off by external request.
 Stoichiometry    ClH
 Framework group  C*V[C*(HCl)]
 Deg. of freedom     1
 Full point group                 C*V     NOp   4
 Rotational constants (GHZ):           0.0000000         330.2067759         330.2067759
 Standard basis: 6-31G(d) (6D, 7F)
    21 basis functions,    56 primitive gaussians,    21 cartesian basis functions
     9 alpha electrons        9 beta electrons
       nuclear repulsion energy         7.1970940892 Hartrees.
 NAtoms=    2 NActive=    2 NUniq=    2 SFac= 1.00D+00 NAtFMM=   60 NAOKFM=F Big=F
 Integral buffers will be    131072 words long.
 Raffenetti 2 integral format.
 Two-electron integral symmetry is turned off.
 One-electron integrals computed using PRISM.
 NBasis=    21 RedAO= T EigKep=  1.97D-02  NBF=    21
 NBsUse=    21 1.00D-06 EigRej= -1.00D+00 NBFU=    21
 Keep R1 ints in memory in canonical form, NReq=6931411.
 Requested convergence on RMS density matrix=1.00D-08 within 128 cycles.
 Requested convergence on MAX density matrix=1.00D-06.
 Requested convergence on             energy=1.00D-06.
 No special actions if energy rises.
 SCF Done:  E(RB3LYP) =  -460.791829204     A.U. after    1 cycles
            NFock=  1  Conv=0.20D+01     -V/T= 2.0031
 Calling FoFJK, ICntrl=      2127 FMM=F ISym2X=0 I1Cent= 0 IOpClX= 0 NMat=1 NMatS=1 NMatT=0.
 -------------------------------------------------------------------
 Center     Atomic                   Forces (Hartrees/Bohr)
 Number     Number              X              Y              Z
 -------------------------------------------------------------------
      1       17           0.073098609    0.000000000   -0.000000000
      2        1          -0.073098609   -0.000000000    0.000000000
 -------------------------------------------------------------------
 Cartesian Forces:  Max     0.073098609 RMS     0.042203501
 TRJ-TRJ-TRJ-TRJ-TRJ-TRJ-TRJ-TRJ-TRJ-TRJ-TRJ-TRJ-TRJ-TRJ-TRJ-TRJ-TRJ-TRJ

 ADMP step      5
 Frobenius norm of [F,P] =     5.659985D-02
 Current gradient on entry to l121
 I=    1 X=  -7.309860859640D-02 Y=   0.000000000000D+00 Z=   0.000000000000D+00
 I=    2 X=   7.309860859640D-02 Y=   0.000000000000D+00 Z=   0.000000000000D+00

 Summary information for step      5
 Time (fs)     0.500000
 EKinC      =      0.0954549; EKinPA =      0.0017930; EKinPB =      0.0017930
 EKin       =      0.0990408; EPot   =   -460.7918292; ETot   =   -460.6927884
 ETot-EKinP =   -460.6963743
 Adiabaticity Index =    4.1175D-03
 Integrand for the Velocity-Velocity Auto-Correlation  Function =   1.832056250360D-01
 Angular momentum
   JX = -0.2420824086D-63  JY = -0.4129584906D-31  JZ = -0.5976782721D-30
 Jtot =  0.5991032165D-30 H-BAR;  J (Quantum Number) =  0.0000000000D+00
 Total energy  -4.606927884D+02  Delta-E  -6.663727D-06 A.U.
 Total angular momentum   5.991032D-31  Delta-A  -5.090252D-32 h-bar
 Tr(PA)-NA =  3.553D-15
 Tr(PA**2-PA) = -3.951D-12
 Tr[(PA**2-PA)**2] =  1.003D-13
 Cartesian coordinates:
 I=    1 X=   6.616919145191D-02 Y=   0.000000000000D+00 Z=   0.000000000000D+00
 I=    2 X=  -2.295895245832D+00 Y=   0.000000000000D+00 Z=   0.000000000000D+00
 MW Cartesian velocity:
 I=    1 X=  -7.081104455480D+13 Y=   0.000000000000D+00 Z=   0.000000000000D+00
 I=    2 X=   4.171085779168D+14 Y=   0.000000000000D+00 Z=   0.000000000000D+00
 TRJ-TRJ-TRJ-TRJ-TRJ-TRJ-TRJ-TRJ-TRJ-TRJ-TRJ-TRJ-TRJ-TRJ-TRJ-TRJ-TRJ-TRJ
                          Input orientation:                          
 ---------------------------------------------------------------------
 Center     Atomic      Atomic             Coordinates (Angstroms)
 Number     Number       Type             X           Y           Z
 ---------------------------------------------------------------------
      1         17           0        0.034387   -0.000000   -0.000000
      2          1           0       -1.193129    0.000000    0.000000
 ---------------------------------------------------------------------
 Symmetry turned off by external request.
 Stoichiometry    ClH
 Framework group  C*V[C*(HCl)]
 Deg. of freedom     1
 Full point group                 C*V     NOp   4
 Rotational constants (GHZ):           0.0000000         342.3873663         342.3873663
 Standard basis: 6-31G(d) (6D, 7F)
    21 basis functions,    56 primitive gaussians,    21 cartesian basis functions
     9 alpha electrons        9 beta electrons
       nuclear repulsion energy         7.3286343806 Hartrees.
 NAtoms=    2 NActive=    2 NUniq=    2 SFac= 1.00D+00 NAtFMM=   60 NAOKFM=F Big=F
 Integral buffers will be    131072 words long.
 Raffenetti 2 integral format.
 Two-electron integral symmetry is turned off.
 One-electron integrals computed using PRISM.
 NBasis=    21 RedAO= T EigKep=  1.97D-02  NBF=    21
 NBsUse=    21 1.00D-06 EigRej= -1.00D+00 NBFU=    21
 Keep R1 ints in memory in canonical form, NReq=6931411.
 Requested convergence on RMS density matrix=1.00D-08 within 128 cycles.
 Requested convergence on MAX density matrix=1.00D-06.
 Requested convergence on             energy=1.00D-06.
 No special actions if energy rises.
 SCF Done:  E(RB3LYP) =  -460.790508712     A.U. after    1 cycles
            NFock=  1  Conv=0.20D+01     -V/T= 2.0030
 Calling FoFJK, ICntrl=      2127 FMM=F ISym2X=0 I1Cent= 0 IOpClX= 0 NMat=1 NMatS=1 NMatT=0.
 -------------------------------------------------------------------
 Center     Atomic                   Forces (Hartrees/Bohr)
 Number     Number              X              Y              Z
 -------------------------------------------------------------------
      1       17           0.087075783    0.000000000   -0.000000000
      2        1          -0.087075783   -0.000000000    0.000000000
 -------------------------------------------------------------------
 Cartesian Forces:  Max     0.087075783 RMS     0.050273227
 TRJ-TRJ-TRJ-TRJ-TRJ-TRJ-TRJ-TRJ-TRJ-TRJ-TRJ-TRJ-TRJ-TRJ-TRJ-TRJ-TRJ-TRJ

 ADMP step      6
 Frobenius norm of [F,P] =     5.206321D-02
 Current gradient on entry to l121
 I=    1 X=  -8.707578336439D-02 Y=   0.000000000000D+00 Z=   0.000000000000D+00
 I=    2 X=   8.707578336438D-02 Y=   0.000000000000D+00 Z=   0.000000000000D+00

 Summary information for step      6
 Time (fs)     0.600000
 EKinC      =      0.0920622; EKinPA =      0.0028210; EKinPB =      0.0028210
 EKin       =      0.0977042; EPot   =   -460.7905087; ETot   =   -460.6928045
 ETot-EKinP =   -460.6984465
 Adiabaticity Index =    5.2518D-03
 Integrand for the Velocity-Velocity Auto-Correlation  Function =   1.799203638964D-01
 Angular momentum
   JX = -0.2098912423D-63  JY = -0.5884106147D-31  JZ = -0.4592628252D-30
 Jtot =  0.4630168605D-30 H-BAR;  J (Quantum Number) =  0.0000000000D+00
 Total energy  -4.606928045D+02  Delta-E  -1.618484D-05 A.U.
 Total angular momentum   4.630169D-31  Delta-A  -1.360864D-31 h-bar
 Tr(PA)-NA = -1.776D-15
 Tr(PA**2-PA) = -6.441D-12
 Tr[(PA**2-PA)**2] =  1.666D-13
 Cartesian coordinates:
 I=    1 X=   6.498153297864D-02 Y=   0.000000000000D+00 Z=   0.000000000000D+00
 I=    2 X=  -2.254686650372D+00 Y=   0.000000000000D+00 Z=   0.000000000000D+00
 MW Cartesian velocity:
 I=    1 X=  -6.954125399636D+13 Y=   0.000000000000D+00 Z=   0.000000000000D+00
 I=    2 X=   4.096289462094D+14 Y=   0.000000000000D+00 Z=   0.000000000000D+00
 TRJ-TRJ-TRJ-TRJ-TRJ-TRJ-TRJ-TRJ-TRJ-TRJ-TRJ-TRJ-TRJ-TRJ-TRJ-TRJ-TRJ-TRJ
                          Input orientation:                          
 ---------------------------------------------------------------------
 Center     Atomic      Atomic             Coordinates (Angstroms)
 Number     Number       Type             X           Y           Z
 ---------------------------------------------------------------------
      1         17           0        0.033771   -0.000000   -0.000000
      2          1           0       -1.171751    0.000000    0.000000
 ---------------------------------------------------------------------
 Symmetry turned off by external request.
 Stoichiometry    ClH
 Framework group  C*V[C*(HCl)]
 Deg. of freedom     1
 Full point group                 C*V     NOp   4
 Rotational constants (GHZ):           0.0000000         354.9946899         354.9946899
 Standard basis: 6-31G(d) (6D, 7F)
    21 basis functions,    56 primitive gaussians,    21 cartesian basis functions
     9 alpha electrons        9 beta electrons
       nuclear repulsion energy         7.4623414748 Hartrees.
 NAtoms=    2 NActive=    2 NUniq=    2 SFac= 1.00D+00 NAtFMM=   60 NAOKFM=F Big=F
 Integral buffers will be    131072 words long.
 Raffenetti 2 integral format.
 Two-electron integral symmetry is turned off.
 One-electron integrals computed using PRISM.
 NBasis=    21 RedAO= T EigKep=  1.97D-02  NBF=    21
 NBsUse=    21 1.00D-06 EigRej= -1.00D+00 NBFU=    21
 Keep R1 ints in memory in canonical form, NReq=6931411.
 Requested convergence on RMS density matrix=1.00D-08 within 128 cycles.
 Requested convergence on MAX density matrix=1.00D-06.
 Requested convergence on             energy=1.00D-06.
 No special actions if energy rises.
 SCF Done:  E(RB3LYP) =  -460.788681263     A.U. after    1 cycles
            NFock=  1  Conv=0.20D+01     -V/T= 2.0028
 Calling FoFJK, ICntrl=      2127 FMM=F ISym2X=0 I1Cent= 0 IOpClX= 0 NMat=1 NMatS=1 NMatT=0.
 -------------------------------------------------------------------
 Center     Atomic                   Forces (Hartrees/Bohr)
 Number     Number              X              Y              Z
 -------------------------------------------------------------------
      1       17           0.098375557    0.000000000   -0.000000000
      2        1          -0.098375557   -0.000000000    0.000000000
 -------------------------------------------------------------------
 Cartesian Forces:  Max     0.098375557 RMS     0.056797155
 TRJ-TRJ-TRJ-TRJ-TRJ-TRJ-TRJ-TRJ-TRJ-TRJ-TRJ-TRJ-TRJ-TRJ-TRJ-TRJ-TRJ-TRJ

 ADMP step      7
 Frobenius norm of [F,P] =     4.543950D-02
 Current gradient on entry to l121
 I=    1 X=  -9.837555734734D-02 Y=   0.000000000000D+00 Z=   0.000000000000D+00
 I=    2 X=   9.837555734734D-02 Y=   0.000000000000D+00 Z=   0.000000000000D+00

 Summary information for step      7
 Time (fs)     0.700000
 EKinC      =      0.0882107; EKinPA =      0.0038229; EKinPB =      0.0038229
 EKin       =      0.0958566; EPot   =   -460.7886813; ETot   =   -460.6928246
 ETot-EKinP =   -460.7004705
 Adiabaticity Index =    5.5079D-03
 Integrand for the Velocity-Velocity Auto-Correlation  Function =   1.761166592252D-01
 Angular momentum
   JX =  0.2437967772D-63  JY =  0.1096534015D-30  JZ =  0.1943990388D-30
 Jtot =  0.2231924164D-30 H-BAR;  J (Quantum Number) =  0.0000000000D+00
 Total energy  -4.606928246D+02  Delta-E  -2.007675D-05 A.U.
 Total angular momentum   2.231924D-31  Delta-A  -2.398244D-31 h-bar
 Tr(PA)-NA =  1.776D-15
 Tr(PA**2-PA) = -8.400D-12
 Tr[(PA**2-PA)**2] =  2.217D-13
 Cartesian coordinates:
 I=    1 X=   6.381722121614D-02 Y=   0.000000000000D+00 Z=   0.000000000000D+00
 I=    2 X=  -2.214288123784D+00 Y=   0.000000000000D+00 Z=   0.000000000000D+00
 MW Cartesian velocity:
 I=    1 X=  -6.807107915377D+13 Y=   0.000000000000D+00 Z=   0.000000000000D+00
 I=    2 X=   4.009689618562D+14 Y=   0.000000000000D+00 Z=   0.000000000000D+00
 TRJ-TRJ-TRJ-TRJ-TRJ-TRJ-TRJ-TRJ-TRJ-TRJ-TRJ-TRJ-TRJ-TRJ-TRJ-TRJ-TRJ-TRJ
                          Input orientation:                          
 ---------------------------------------------------------------------
 Center     Atomic      Atomic             Coordinates (Angstroms)
 Number     Number       Type             X           Y           Z
 ---------------------------------------------------------------------
      1         17           0        0.033168   -0.000000   -0.000000
      2          1           0       -1.150857    0.000000    0.000000
 ---------------------------------------------------------------------
 Symmetry turned off by external request.
 Stoichiometry    ClH
 Framework group  C*V[C*(HCl)]
 Deg. of freedom     1
 Full point group                 C*V     NOp   4
 Rotational constants (GHZ):           0.0000000         368.0014732         368.0014732
 Standard basis: 6-31G(d) (6D, 7F)
    21 basis functions,    56 primitive gaussians,    21 cartesian basis functions
     9 alpha electrons        9 beta electrons
       nuclear repulsion energy         7.5978194423 Hartrees.
 NAtoms=    2 NActive=    2 NUniq=    2 SFac= 1.00D+00 NAtFMM=   60 NAOKFM=F Big=F
 Integral buffers will be    131072 words long.
 Raffenetti 2 integral format.
 Two-electron integral symmetry is turned off.
 One-electron integrals computed using PRISM.
 NBasis=    21 RedAO= T EigKep=  1.96D-02  NBF=    21
 NBsUse=    21 1.00D-06 EigRej= -1.00D+00 NBFU=    21
 Keep R1 ints in memory in canonical form, NReq=6931411.
 Requested convergence on RMS density matrix=1.00D-08 within 128 cycles.
 Requested convergence on MAX density matrix=1.00D-06.
 Requested convergence on             energy=1.00D-06.
 No special actions if energy rises.
 SCF Done:  E(RB3LYP) =  -460.786064048     A.U. after    1 cycles
            NFock=  1  Conv=0.20D+01     -V/T= 2.0026
 Calling FoFJK, ICntrl=      2127 FMM=F ISym2X=0 I1Cent= 0 IOpClX= 0 NMat=1 NMatS=1 NMatT=0.
 -------------------------------------------------------------------
 Center     Atomic                   Forces (Hartrees/Bohr)
 Number     Number              X              Y              Z
 -------------------------------------------------------------------
      1       17           0.108442252    0.000000000   -0.000000000
      2        1          -0.108442252   -0.000000000    0.000000000
 -------------------------------------------------------------------
 Cartesian Forces:  Max     0.108442252 RMS     0.062609163
 TRJ-TRJ-TRJ-TRJ-TRJ-TRJ-TRJ-TRJ-TRJ-TRJ-TRJ-TRJ-TRJ-TRJ-TRJ-TRJ-TRJ-TRJ

 ADMP step      8
 Frobenius norm of [F,P] =     3.937821D-02
 Current gradient on entry to l121
 I=    1 X=  -1.084422518411D-01 Y=   0.000000000000D+00 Z=   0.000000000000D+00
 I=    2 X=   1.084422518411D-01 Y=   0.000000000000D+00 Z=   0.000000000000D+00

 Summary information for step      8
 Time (fs)     0.800000
 EKinC      =      0.0840126; EKinPA =      0.0046048; EKinPB =      0.0046048
 EKin       =      0.0932222; EPot   =   -460.7860640; ETot   =   -460.6928419
 ETot-EKinP =   -460.7020514
 Adiabaticity Index =    4.7757D-03
 Integrand for the Velocity-Velocity Auto-Correlation  Function =   1.718747170322D-01
 Angular momentum
   JX =  0.6007372317D-63  JY =  0.2188801058D-30  JZ =  0.8172065662D-30
 Jtot =  0.8460112722D-30 H-BAR;  J (Quantum Number) =  0.0000000000D+00
 Total energy  -4.606928419D+02  Delta-E  -1.725565D-05 A.U.
 Total angular momentum   8.460113D-31  Delta-A   6.228189D-31 h-bar
 Tr(PA)-NA = -1.776D-15
 Tr(PA**2-PA) = -9.173D-12
 Tr[(PA**2-PA)**2] =  2.464D-13
 Cartesian coordinates:
 I=    1 X=   6.267928585358D-02 Y=   0.000000000000D+00 Z=   0.000000000000D+00
 I=    2 X=  -2.174804788237D+00 Y=   0.000000000000D+00 Z=   0.000000000000D+00
 MW Cartesian velocity:
 I=    1 X=  -6.643152055634D+13 Y=   0.000000000000D+00 Z=   0.000000000000D+00
 I=    2 X=   3.913112317763D+14 Y=   0.000000000000D+00 Z=   0.000000000000D+00
 TRJ-TRJ-TRJ-TRJ-TRJ-TRJ-TRJ-TRJ-TRJ-TRJ-TRJ-TRJ-TRJ-TRJ-TRJ-TRJ-TRJ-TRJ
                          Input orientation:                          
 ---------------------------------------------------------------------
 Center     Atomic      Atomic             Coordinates (Angstroms)
 Number     Number       Type             X           Y           Z
 ---------------------------------------------------------------------
      1         17           0        0.032582   -0.000000   -0.000000
      2          1           0       -1.130497    0.000000    0.000000
 ---------------------------------------------------------------------
 Symmetry turned off by external request.
 Stoichiometry    ClH
 Framework group  C*V[C*(HCl)]
 Deg. of freedom     1
 Full point group                 C*V     NOp   4
 Rotational constants (GHZ):           0.0000000         381.3759654         381.3759654
 Standard basis: 6-31G(d) (6D, 7F)
    21 basis functions,    56 primitive gaussians,    21 cartesian basis functions
     9 alpha electrons        9 beta electrons
       nuclear repulsion energy         7.7346532723 Hartrees.
 NAtoms=    2 NActive=    2 NUniq=    2 SFac= 1.00D+00 NAtFMM=   60 NAOKFM=F Big=F
 Integral buffers will be    131072 words long.
 Raffenetti 2 integral format.
 Two-electron integral symmetry is turned off.
 One-electron integrals computed using PRISM.
 NBasis=    21 RedAO= T EigKep=  1.96D-02  NBF=    21
 NBsUse=    21 1.00D-06 EigRej= -1.00D+00 NBFU=    21
 Keep R1 ints in memory in canonical form, NReq=6931411.
 Requested convergence on RMS density matrix=1.00D-08 within 128 cycles.
 Requested convergence on MAX density matrix=1.00D-06.
 Requested convergence on             energy=1.00D-06.
 No special actions if energy rises.
 SCF Done:  E(RB3LYP) =  -460.782421467     A.U. after    1 cycles
            NFock=  1  Conv=0.20D+01     -V/T= 2.0023
 Calling FoFJK, ICntrl=      2127 FMM=F ISym2X=0 I1Cent= 0 IOpClX= 0 NMat=1 NMatS=1 NMatT=0.
 -------------------------------------------------------------------
 Center     Atomic                   Forces (Hartrees/Bohr)
 Number     Number              X              Y              Z
 -------------------------------------------------------------------
      1       17           0.119025399    0.000000000   -0.000000000
      2        1          -0.119025399   -0.000000000    0.000000000
 -------------------------------------------------------------------
 Cartesian Forces:  Max     0.119025399 RMS     0.068719346
 TRJ-TRJ-TRJ-TRJ-TRJ-TRJ-TRJ-TRJ-TRJ-TRJ-TRJ-TRJ-TRJ-TRJ-TRJ-TRJ-TRJ-TRJ

 ADMP step      9
 Frobenius norm of [F,P] =     3.842337D-02
 Current gradient on entry to l121
 I=    1 X=  -1.190253994660D-01 Y=   0.000000000000D+00 Z=   0.000000000000D+00
 I=    2 X=   1.190253994660D-01 Y=   0.000000000000D+00 Z=   0.000000000000D+00

 Summary information for step      9
 Time (fs)     0.900000
 EKinC      =      0.0795135; EKinPA =      0.0050297; EKinPB =      0.0050297
 EKin       =      0.0895730; EPot   =   -460.7824215; ETot   =   -460.6928485
 ETot-EKinP =   -460.7029079
 Adiabaticity Index =    3.2326D-03
 Integrand for the Velocity-Velocity Auto-Correlation  Function =   1.672092357016D-01
 Angular momentum
   JX =  0.3745862557D-63  JY =  0.1333275030D-30  JZ =  0.5190887851D-30
 Jtot =  0.5359378601D-30 H-BAR;  J (Quantum Number) =  0.0000000000D+00
 Total energy  -4.606928485D+02  Delta-E  -6.586752D-06 A.U.
 Total angular momentum   5.359379D-31  Delta-A  -3.100734D-31 h-bar
 Tr(PA)-NA = -1.776D-15
 Tr(PA**2-PA) = -8.717D-12
 Tr[(PA**2-PA)**2] =  2.380D-13
 Cartesian coordinates:
 I=    1 X=   6.157042596748D-02 Y=   0.000000000000D+00 Z=   0.000000000000D+00
 I=    2 X=  -2.136330294520D+00 Y=   0.000000000000D+00 Z=   0.000000000000D+00
 MW Cartesian velocity:
 I=    1 X=  -6.462825929562D+13 Y=   0.000000000000D+00 Z=   0.000000000000D+00
 I=    2 X=   3.806892201283D+14 Y=   0.000000000000D+00 Z=   0.000000000000D+00
 TRJ-TRJ-TRJ-TRJ-TRJ-TRJ-TRJ-TRJ-TRJ-TRJ-TRJ-TRJ-TRJ-TRJ-TRJ-TRJ-TRJ-TRJ
                          Input orientation:                          
 ---------------------------------------------------------------------
 Center     Atomic      Atomic             Coordinates (Angstroms)
 Number     Number       Type             X           Y           Z
 ---------------------------------------------------------------------
      1         17           0        0.032012   -0.000000   -0.000000
      2          1           0       -1.110723    0.000000    0.000000
 ---------------------------------------------------------------------
 Symmetry turned off by external request.
 Stoichiometry    ClH
 Framework group  C*V[C*(HCl)]
 Deg. of freedom     1
 Full point group                 C*V     NOp   4
 Rotational constants (GHZ):           0.0000000         395.0758760         395.0758760
 Standard basis: 6-31G(d) (6D, 7F)
    21 basis functions,    56 primitive gaussians,    21 cartesian basis functions
     9 alpha electrons        9 beta electrons
       nuclear repulsion energy         7.8723509332 Hartrees.
 NAtoms=    2 NActive=    2 NUniq=    2 SFac= 1.00D+00 NAtFMM=   60 NAOKFM=F Big=F
 Integral buffers will be    131072 words long.
 Raffenetti 2 integral format.
 Two-electron integral symmetry is turned off.
 One-electron integrals computed using PRISM.
 NBasis=    21 RedAO= T EigKep=  1.96D-02  NBF=    21
 NBsUse=    21 1.00D-06 EigRej= -1.00D+00 NBFU=    21
 Keep R1 ints in memory in canonical form, NReq=6931411.
 Requested convergence on RMS density matrix=1.00D-08 within 128 cycles.
 Requested convergence on MAX density matrix=1.00D-06.
 Requested convergence on             energy=1.00D-06.
 No special actions if energy rises.
 SCF Done:  E(RB3LYP) =  -460.777683275     A.U. after    1 cycles
            NFock=  1  Conv=0.20D+01     -V/T= 2.0021
 Calling FoFJK, ICntrl=      2127 FMM=F ISym2X=0 I1Cent= 0 IOpClX= 0 NMat=1 NMatS=1 NMatT=0.
 -------------------------------------------------------------------
 Center     Atomic                   Forces (Hartrees/Bohr)
 Number     Number              X              Y              Z
 -------------------------------------------------------------------
      1       17           0.131867646    0.000000000    0.000000000
      2        1          -0.131867646   -0.000000000   -0.000000000
 -------------------------------------------------------------------
 Cartesian Forces:  Max     0.131867646 RMS     0.076133821
 TRJ-TRJ-TRJ-TRJ-TRJ-TRJ-TRJ-TRJ-TRJ-TRJ-TRJ-TRJ-TRJ-TRJ-TRJ-TRJ-TRJ-TRJ

 ADMP step     10
 Frobenius norm of [F,P] =     4.393668D-02
 Current gradient on entry to l121
 I=    1 X=  -1.318676463242D-01 Y=   0.000000000000D+00 Z=   0.000000000000D+00
 I=    2 X=   1.318676463242D-01 Y=   0.000000000000D+00 Z=   0.000000000000D+00

 Summary information for step     10
 Time (fs)     1.000000
 EKinC      =      0.0746947; EKinPA =      0.0050736; EKinPB =      0.0050736
 EKin       =      0.0848419; EPot   =   -460.7776833; ETot   =   -460.6928414
 ETot-EKinP =   -460.7029886
 Adiabaticity Index =    1.3565D-03
 Integrand for the Velocity-Velocity Auto-Correlation  Function =   1.620632871925D-01
 Angular momentum
   JX =  0.1350288060D-63  JY =  0.1307245105D-31  JZ =  0.2588409536D-30
 Jtot =  0.2591708476D-30 H-BAR;  J (Quantum Number) =  0.0000000000D+00
 Total energy  -4.606928414D+02  Delta-E   7.049909D-06 A.U.
 Total angular momentum   2.591708D-31  Delta-A  -2.767670D-31 h-bar
 Tr(PA)-NA = -3.553D-15
 Tr(PA**2-PA) = -7.558D-12
 Tr[(PA**2-PA)**2] =  2.106D-13
 Cartesian coordinates:
 I=    1 X=   6.049347910553D-02 Y=   0.000000000000D+00 Z=   0.000000000000D+00
 I=    2 X=  -2.098963098003D+00 Y=   0.000000000000D+00 Z=   0.000000000000D+00
 MW Cartesian velocity:
 I=    1 X=  -6.263929204046D+13 Y=   0.000000000000D+00 Z=   0.000000000000D+00
 I=    2 X=   3.689733174956D+14 Y=   0.000000000000D+00 Z=   0.000000000000D+00
 TRJ-TRJ-TRJ-TRJ-TRJ-TRJ-TRJ-TRJ-TRJ-TRJ-TRJ-TRJ-TRJ-TRJ-TRJ-TRJ-TRJ-TRJ
                          Input orientation:                          
 ---------------------------------------------------------------------
 Center     Atomic      Atomic             Coordinates (Angstroms)
 Number     Number       Type             X           Y           Z
 ---------------------------------------------------------------------
      1         17           0        0.031461   -0.000000   -0.000000
      2          1           0       -1.091599    0.000000    0.000000
 ---------------------------------------------------------------------
 Symmetry turned off by external request.
 Stoichiometry    ClH
 Framework group  C*V[C*(HCl)]
 Deg. of freedom     1
 Full point group                 C*V     NOp   4
 Rotational constants (GHZ):           0.0000000         409.0405154         409.0405154
 Standard basis: 6-31G(d) (6D, 7F)
    21 basis functions,    56 primitive gaussians,    21 cartesian basis functions
     9 alpha electrons        9 beta electrons
       nuclear repulsion energy         8.0102736602 Hartrees.
 NAtoms=    2 NActive=    2 NUniq=    2 SFac= 1.00D+00 NAtFMM=   60 NAOKFM=F Big=F
 Integral buffers will be    131072 words long.
 Raffenetti 2 integral format.
 Two-electron integral symmetry is turned off.
 One-electron integrals computed using PRISM.
 NBasis=    21 RedAO= T EigKep=  1.96D-02  NBF=    21
 NBsUse=    21 1.00D-06 EigRej= -1.00D+00 NBFU=    21
 Keep R1 ints in memory in canonical form, NReq=6931411.
 Requested convergence on RMS density matrix=1.00D-08 within 128 cycles.
 Requested convergence on MAX density matrix=1.00D-06.
 Requested convergence on             energy=1.00D-06.
 No special actions if energy rises.
 SCF Done:  E(RB3LYP) =  -460.771984288     A.U. after    1 cycles
            NFock=  1  Conv=0.20D+01     -V/T= 2.0020
 Calling FoFJK, ICntrl=      2127 FMM=F ISym2X=0 I1Cent= 0 IOpClX= 0 NMat=1 NMatS=1 NMatT=0.
 -------------------------------------------------------------------
 Center     Atomic                   Forces (Hartrees/Bohr)
 Number     Number              X              Y              Z
 -------------------------------------------------------------------
      1       17           0.148436639    0.000000000    0.000000000
      2        1          -0.148436639   -0.000000000   -0.000000000
 -------------------------------------------------------------------
 Cartesian Forces:  Max     0.148436639 RMS     0.085699933
 TRJ-TRJ-TRJ-TRJ-TRJ-TRJ-TRJ-TRJ-TRJ-TRJ-TRJ-TRJ-TRJ-TRJ-TRJ-TRJ-TRJ-TRJ

 ADMP step     11
 Frobenius norm of [F,P] =     5.049048D-02
 Current gradient on entry to l121
 I=    1 X=  -1.484366386570D-01 Y=   0.000000000000D+00 Z=   0.000000000000D+00
 I=    2 X=   1.484366386570D-01 Y=   0.000000000000D+00 Z=   0.000000000000D+00

 Summary information for step     11
 Time (fs)     1.100000
 EKinC      =      0.0694891; EKinPA =      0.0048333; EKinPB =      0.0048333
 EKin       =      0.0791556; EPot   =   -460.7719843; ETot   =   -460.6928287
 ETot-EKinP =   -460.7024952
 Adiabaticity Index =   -2.1631D-04
 Integrand for the Velocity-Velocity Auto-Correlation  Function =   1.563140986773D-01
 Angular momentum
   JX =  0.2277551531D-63  JY =  0.3599151339D-32  JZ =  0.4717511878D-30
 Jtot =  0.4717649172D-30 H-BAR;  J (Quantum Number) =  0.0000000000D+00
 Total energy  -4.606928287D+02  Delta-E   1.276367D-05 A.U.
 Total angular momentum   4.717649D-31  Delta-A   2.125941D-31 h-bar
 Tr(PA)-NA =  0.000D+00
 Tr(PA**2-PA) = -6.304D-12
 Tr[(PA**2-PA)**2] =  1.795D-13
 Cartesian coordinates:
 I=    1 X=   5.945188852384D-02 Y=   0.000000000000D+00 Z=   0.000000000000D+00
 I=    2 X=  -2.062822670530D+00 Y=   0.000000000000D+00 Z=   0.000000000000D+00
 MW Cartesian velocity:
 I=    1 X=  -6.041716570551D+13 Y=   0.000000000000D+00 Z=   0.000000000000D+00
 I=    2 X=   3.558840040791D+14 Y=   0.000000000000D+00 Z=   0.000000000000D+00
 TRJ-TRJ-TRJ-TRJ-TRJ-TRJ-TRJ-TRJ-TRJ-TRJ-TRJ-TRJ-TRJ-TRJ-TRJ-TRJ-TRJ-TRJ
                          Input orientation:                          
 ---------------------------------------------------------------------
 Center     Atomic      Atomic             Coordinates (Angstroms)
 Number     Number       Type             X           Y           Z
 ---------------------------------------------------------------------
      1         17           0        0.030930   -0.000000   -0.000000
      2          1           0       -1.073205    0.000000    0.000000
 ---------------------------------------------------------------------
 Symmetry turned off by external request.
 Stoichiometry    ClH
 Framework group  C*V[C*(HCl)]
 Deg. of freedom     1
 Full point group                 C*V     NOp   4
 Rotational constants (GHZ):           0.0000000         423.1819823         423.1819823
 Standard basis: 6-31G(d) (6D, 7F)
    21 basis functions,    56 primitive gaussians,    21 cartesian basis functions
     9 alpha electrons        9 beta electrons
       nuclear repulsion energy         8.1475638818 Hartrees.
 NAtoms=    2 NActive=    2 NUniq=    2 SFac= 1.00D+00 NAtFMM=   60 NAOKFM=F Big=F
 Integral buffers will be    131072 words long.
 Raffenetti 2 integral format.
 Two-electron integral symmetry is turned off.
 One-electron integrals computed using PRISM.
 NBasis=    21 RedAO= T EigKep=  1.96D-02  NBF=    21
 NBsUse=    21 1.00D-06 EigRej= -1.00D+00 NBFU=    21
 Keep R1 ints in memory in canonical form, NReq=6931411.
 Requested convergence on RMS density matrix=1.00D-08 within 128 cycles.
 Requested convergence on MAX density matrix=1.00D-06.
 Requested convergence on             energy=1.00D-06.
 No special actions if energy rises.
 SCF Done:  E(RB3LYP) =  -460.765544321     A.U. after    1 cycles
            NFock=  1  Conv=0.20D+01     -V/T= 2.0019
 Calling FoFJK, ICntrl=      2127 FMM=F ISym2X=0 I1Cent= 0 IOpClX= 0 NMat=1 NMatS=1 NMatT=0.
 -------------------------------------------------------------------
 Center     Atomic                   Forces (Hartrees/Bohr)
 Number     Number              X              Y              Z
 -------------------------------------------------------------------
      1       17           0.169759899   -0.000000000    0.000000000
      2        1          -0.169759899    0.000000000   -0.000000000
 -------------------------------------------------------------------
 Cartesian Forces:  Max     0.169759899 RMS     0.098010923
 TRJ-TRJ-TRJ-TRJ-TRJ-TRJ-TRJ-TRJ-TRJ-TRJ-TRJ-TRJ-TRJ-TRJ-TRJ-TRJ-TRJ-TRJ

 ADMP step     12
 Frobenius norm of [F,P] =     5.263070D-02
 Current gradient on entry to l121
 I=    1 X=  -1.697598990623D-01 Y=   0.000000000000D+00 Z=   0.000000000000D+00
 I=    2 X=   1.697598990623D-01 Y=   0.000000000000D+00 Z=   0.000000000000D+00

 Summary information for step     12
 Time (fs)     1.200000
 EKinC      =      0.0638077; EKinPA =      0.0044567; EKinPB =      0.0044567
 EKin       =      0.0727211; EPot   =   -460.7655443; ETot   =   -460.6928232
 ETot-EKinP =   -460.7017366
 Adiabaticity Index =   -1.0804D-03
 Integrand for the Velocity-Velocity Auto-Correlation  Function =   1.497877201013D-01
 Angular momentum
   JX =  0.1575248461D-63  JY = -0.5648178733D-31  JZ =  0.3860488919D-30
 Jtot =  0.3901588641D-30 H-BAR;  J (Quantum Number) =  0.0000000000D+00
 Total energy  -4.606928232D+02  Delta-E   5.408460D-06 A.U.
 Total angular momentum   3.901589D-31  Delta-A  -8.160605D-32 h-bar
 Tr(PA)-NA =  1.776D-15
 Tr(PA**2-PA) = -5.356D-12
 Tr[(PA**2-PA)**2] =  1.518D-13
 Cartesian coordinates:
 I=    1 X=   5.845009669146D-02 Y=   0.000000000000D+00 Z=   0.000000000000D+00
 I=    2 X=  -2.028063153981D+00 Y=   0.000000000000D+00 Z=   0.000000000000D+00
 MW Cartesian velocity:
 I=    1 X=  -5.789464662876D+13 Y=   0.000000000000D+00 Z=   0.000000000000D+00
 I=    2 X=   3.410252436769D+14 Y=   0.000000000000D+00 Z=   0.000000000000D+00
 TRJ-TRJ-TRJ-TRJ-TRJ-TRJ-TRJ-TRJ-TRJ-TRJ-TRJ-TRJ-TRJ-TRJ-TRJ-TRJ-TRJ-TRJ
                          Input orientation:                          
 ---------------------------------------------------------------------
 Center     Atomic      Atomic             Coordinates (Angstroms)
 Number     Number       Type             X           Y           Z
 ---------------------------------------------------------------------
      1         17           0        0.030424   -0.000000   -0.000000
      2          1           0       -1.055647    0.000000    0.000000
 ---------------------------------------------------------------------
 Symmetry turned off by external request.
 Stoichiometry    ClH
 Framework group  C*V[C*(HCl)]
 Deg. of freedom     1
 Full point group                 C*V     NOp   4
 Rotational constants (GHZ):           0.0000000         437.3763486         437.3763486
 Standard basis: 6-31G(d) (6D, 7F)
    21 basis functions,    56 primitive gaussians,    21 cartesian basis functions
     9 alpha electrons        9 beta electrons
       nuclear repulsion energy         8.2830796449 Hartrees.
 NAtoms=    2 NActive=    2 NUniq=    2 SFac= 1.00D+00 NAtFMM=   60 NAOKFM=F Big=F
 Integral buffers will be    131072 words long.
 Raffenetti 2 integral format.
 Two-electron integral symmetry is turned off.
 One-electron integrals computed using PRISM.
 NBasis=    21 RedAO= T EigKep=  1.96D-02  NBF=    21
 NBsUse=    21 1.00D-06 EigRej= -1.00D+00 NBFU=    21
 Keep R1 ints in memory in canonical form, NReq=6931411.
 Requested convergence on RMS density matrix=1.00D-08 within 128 cycles.
 Requested convergence on MAX density matrix=1.00D-06.
 Requested convergence on             energy=1.00D-06.
 No special actions if energy rises.
 SCF Done:  E(RB3LYP) =  -460.758477117     A.U. after    1 cycles
            NFock=  1  Conv=0.20D+01     -V/T= 2.0018
 Calling FoFJK, ICntrl=      2127 FMM=F ISym2X=0 I1Cent= 0 IOpClX= 0 NMat=1 NMatS=1 NMatT=0.
 -------------------------------------------------------------------
 Center     Atomic                   Forces (Hartrees/Bohr)
 Number     Number              X              Y              Z
 -------------------------------------------------------------------
      1       17           0.196298067   -0.000000000    0.000000000
      2        1          -0.196298067    0.000000000   -0.000000000
 -------------------------------------------------------------------
 Cartesian Forces:  Max     0.196298067 RMS     0.113332742
 TRJ-TRJ-TRJ-TRJ-TRJ-TRJ-TRJ-TRJ-TRJ-TRJ-TRJ-TRJ-TRJ-TRJ-TRJ-TRJ-TRJ-TRJ

 ADMP step     13
 Frobenius norm of [F,P] =     4.928947D-02
 Current gradient on entry to l121
 I=    1 X=  -1.962980670580D-01 Y=   0.000000000000D+00 Z=   0.000000000000D+00
 I=    2 X=   1.962980670580D-01 Y=   0.000000000000D+00 Z=   0.000000000000D+00

 Summary information for step     13
 Time (fs)     1.300000
 EKinC      =      0.0575713; EKinPA =      0.0040385; EKinPB =      0.0040385
 EKin       =      0.0656483; EPot   =   -460.7584771; ETot   =   -460.6928288
 ETot-EKinP =   -460.7009058
 Adiabaticity Index =   -1.3652D-03
 Integrand for the Velocity-Velocity Auto-Correlation  Function =   1.422796784213D-01
 Angular momentum
   JX =  0.6155112363D-64  JY = -0.2052612641D-30  JZ =  0.3127067969D-30
 Jtot =  0.3740557811D-30 H-BAR;  J (Quantum Number) =  0.0000000000D+00
 Total energy  -4.606928288D+02  Delta-E  -5.550268D-06 A.U.
 Total angular momentum   3.740558D-31  Delta-A  -1.610308D-32 h-bar
 Tr(PA)-NA = -3.553D-15
 Tr(PA**2-PA) = -4.663D-12
 Tr[(PA**2-PA)**2] =  1.280D-13
 Cartesian coordinates:
 I=    1 X=   5.749382078914D-02 Y=   0.000000000000D+00 Z=   0.000000000000D+00
 I=    2 X=  -1.994882919348D+00 Y=   0.000000000000D+00 Z=   0.000000000000D+00
 MW Cartesian velocity:
 I=    1 X=  -5.499270366813D+13 Y=   0.000000000000D+00 Z=   0.000000000000D+00
 I=    2 X=   3.239315076769D+14 Y=   0.000000000000D+00 Z=   0.000000000000D+00
 TRJ-TRJ-TRJ-TRJ-TRJ-TRJ-TRJ-TRJ-TRJ-TRJ-TRJ-TRJ-TRJ-TRJ-TRJ-TRJ-TRJ-TRJ
                          Input orientation:                          
 ---------------------------------------------------------------------
 Center     Atomic      Atomic             Coordinates (Angstroms)
 Number     Number       Type             X           Y           Z
 ---------------------------------------------------------------------
      1         17           0        0.029946   -0.000000   -0.000000
      2          1           0       -1.039055    0.000000    0.000000
 ---------------------------------------------------------------------
 Symmetry turned off by external request.
 Stoichiometry    ClH
 Framework group  C*V[C*(HCl)]
 Deg. of freedom     1
 Full point group                 C*V     NOp   4
 Rotational constants (GHZ):           0.0000000         451.4561191         451.4561191
 Standard basis: 6-31G(d) (6D, 7F)
    21 basis functions,    56 primitive gaussians,    21 cartesian basis functions
     9 alpha electrons        9 beta electrons
       nuclear repulsion energy         8.4153457108 Hartrees.
 NAtoms=    2 NActive=    2 NUniq=    2 SFac= 1.00D+00 NAtFMM=   60 NAOKFM=F Big=F
 Integral buffers will be    131072 words long.
 Raffenetti 2 integral format.
 Two-electron integral symmetry is turned off.
 One-electron integrals computed using PRISM.
 NBasis=    21 RedAO= T EigKep=  1.96D-02  NBF=    21
 NBsUse=    21 1.00D-06 EigRej= -1.00D+00 NBFU=    21
 Keep R1 ints in memory in canonical form, NReq=6931411.
 Requested convergence on RMS density matrix=1.00D-08 within 128 cycles.
 Requested convergence on MAX density matrix=1.00D-06.
 Requested convergence on             energy=1.00D-06.
 No special actions if energy rises.
 SCF Done:  E(RB3LYP) =  -460.750739875     A.U. after    1 cycles
            NFock=  1  Conv=0.20D+01     -V/T= 2.0018
 Calling FoFJK, ICntrl=      2127 FMM=F ISym2X=0 I1Cent= 0 IOpClX= 0 NMat=1 NMatS=1 NMatT=0.
 -------------------------------------------------------------------
 Center     Atomic                   Forces (Hartrees/Bohr)
 Number     Number              X              Y              Z
 -------------------------------------------------------------------
      1       17           0.227771843   -0.000000000    0.000000000
      2        1          -0.227771843    0.000000000   -0.000000000
 -------------------------------------------------------------------
 Cartesian Forces:  Max     0.227771843 RMS     0.131504135
 TRJ-TRJ-TRJ-TRJ-TRJ-TRJ-TRJ-TRJ-TRJ-TRJ-TRJ-TRJ-TRJ-TRJ-TRJ-TRJ-TRJ-TRJ

 ADMP step     14
 Frobenius norm of [F,P] =     4.445126D-02
 Current gradient on entry to l121
 I=    1 X=  -2.277718425064D-01 Y=   0.000000000000D+00 Z=   0.000000000000D+00
 I=    2 X=   2.277718425064D-01 Y=   0.000000000000D+00 Z=   0.000000000000D+00

 Summary information for step     14
 Time (fs)     1.400000
 EKinC      =      0.0507475; EKinPA =      0.0035793; EKinPB =      0.0035793
 EKin       =      0.0579061; EPot   =   -460.7507399; ETot   =   -460.6928338
 ETot-EKinP =   -460.6999923
 Adiabaticity Index =   -1.5506D-03
 Integrand for the Velocity-Velocity Auto-Correlation  Function =   1.335817812277D-01
 Angular momentum
   JX = -0.3382735727D-64  JY = -0.4726665772D-30  JZ =  0.1037637870D-30
 Jtot =  0.4839221185D-30 H-BAR;  J (Quantum Number) =  0.0000000000D+00
 Total energy  -4.606928338D+02  Delta-E  -4.998577D-06 A.U.
 Total angular momentum   4.839221D-31  Delta-A   1.098663D-31 h-bar
 Tr(PA)-NA =  0.000D+00
 Tr(PA**2-PA) = -4.178D-12
 Tr[(PA**2-PA)**2] =  1.089D-13
 Cartesian coordinates:
 I=    1 X=   5.659017621579D-02 Y=   0.000000000000D+00 Z=   0.000000000000D+00
 I=    2 X=  -1.963528852080D+00 Y=   0.000000000000D+00 Z=   0.000000000000D+00
 MW Cartesian velocity:
 I=    1 X=  -5.163086810443D+13 Y=   0.000000000000D+00 Z=   0.000000000000D+00
 I=    2 X=   3.041287994980D+14 Y=   0.000000000000D+00 Z=   0.000000000000D+00
 TRJ-TRJ-TRJ-TRJ-TRJ-TRJ-TRJ-TRJ-TRJ-TRJ-TRJ-TRJ-TRJ-TRJ-TRJ-TRJ-TRJ-TRJ
                          Input orientation:                          
 ---------------------------------------------------------------------
 Center     Atomic      Atomic             Coordinates (Angstroms)
 Number     Number       Type             X           Y           Z
 ---------------------------------------------------------------------
      1         17           0        0.029500   -0.000000    0.000000
      2          1           0       -1.023584    0.000000   -0.000000
 ---------------------------------------------------------------------
 Symmetry turned off by external request.
 Stoichiometry    ClH
 Framework group  C*V[C*(HCl)]
 Deg. of freedom     1
 Full point group                 C*V     NOp   4
 Rotational constants (GHZ):           0.0000000         465.2059487         465.2059487
 Standard basis: 6-31G(d) (6D, 7F)
    21 basis functions,    56 primitive gaussians,    21 cartesian basis functions
     9 alpha electrons        9 beta electrons
       nuclear repulsion energy         8.5425360400 Hartrees.
 NAtoms=    2 NActive=    2 NUniq=    2 SFac= 1.00D+00 NAtFMM=   60 NAOKFM=F Big=F
 Integral buffers will be    131072 words long.
 Raffenetti 2 integral format.
 Two-electron integral symmetry is turned off.
 One-electron integrals computed using PRISM.
 NBasis=    21 RedAO= T EigKep=  1.95D-02  NBF=    21
 NBsUse=    21 1.00D-06 EigRej= -1.00D+00 NBFU=    21
 Keep R1 ints in memory in canonical form, NReq=6931411.
 Requested convergence on RMS density matrix=1.00D-08 within 128 cycles.
 Requested convergence on MAX density matrix=1.00D-06.
 Requested convergence on             energy=1.00D-06.
 No special actions if energy rises.
 SCF Done:  E(RB3LYP) =  -460.742302380     A.U. after    1 cycles
            NFock=  1  Conv=0.20D+01     -V/T= 2.0017
 Calling FoFJK, ICntrl=      2127 FMM=F ISym2X=0 I1Cent= 0 IOpClX= 0 NMat=1 NMatS=1 NMatT=0.
 -------------------------------------------------------------------
 Center     Atomic                   Forces (Hartrees/Bohr)
 Number     Number              X              Y              Z
 -------------------------------------------------------------------
      1       17           0.262990998   -0.000000000    0.000000000
      2        1          -0.262990998    0.000000000   -0.000000000
 -------------------------------------------------------------------
 Cartesian Forces:  Max     0.262990998 RMS     0.151837924
 TRJ-TRJ-TRJ-TRJ-TRJ-TRJ-TRJ-TRJ-TRJ-TRJ-TRJ-TRJ-TRJ-TRJ-TRJ-TRJ-TRJ-TRJ

 ADMP step     15
 Frobenius norm of [F,P] =     4.429728D-02
 Current gradient on entry to l121
 I=    1 X=  -2.629909981681D-01 Y=   0.000000000000D+00 Z=   0.000000000000D+00
 I=    2 X=   2.629909981681D-01 Y=   0.000000000000D+00 Z=   0.000000000000D+00

 Summary information for step     15
 Time (fs)     1.500000
 EKinC      =      0.0433877; EKinPA =      0.0030455; EKinPB =      0.0030455
 EKin       =      0.0494788; EPot   =   -460.7423024; ETot   =   -460.6928236
 ETot-EKinP =   -460.6989147
 Adiabaticity Index =   -1.9307D-03
 Integrand for the Velocity-Velocity Auto-Correlation  Function =   1.235159768912D-01
 Angular momentum
   JX = -0.1467009634D-63  JY = -0.6458393164D-30  JZ =  0.3240863826D-31
 Jtot =  0.6466519484D-30 H-BAR;  J (Quantum Number) =  0.0000000000D+00
 Total energy  -4.606928236D+02  Delta-E   1.021359D-05 A.U.
 Total angular momentum   6.466519D-31  Delta-A   1.627298D-31 h-bar
 Tr(PA)-NA =  1.776D-15
 Tr(PA**2-PA) = -3.890D-12
 Tr[(PA**2-PA)**2] =  9.625D-14
 Cartesian coordinates:
 I=    1 X=   5.574760170263D-02 Y=   0.000000000000D+00 Z=   0.000000000000D+00
 I=    2 X=  -1.934293753742D+00 Y=   0.000000000000D+00 Z=   0.000000000000D+00
 MW Cartesian velocity:
 I=    1 X=  -4.774032097079D+13 Y=   0.000000000000D+00 Z=   0.000000000000D+00
 I=    2 X=   2.812117447866D+14 Y=   0.000000000000D+00 Z=   0.000000000000D+00
 TRJ-TRJ-TRJ-TRJ-TRJ-TRJ-TRJ-TRJ-TRJ-TRJ-TRJ-TRJ-TRJ-TRJ-TRJ-TRJ-TRJ-TRJ
                          Input orientation:                          
 ---------------------------------------------------------------------
 Center     Atomic      Atomic             Coordinates (Angstroms)
 Number     Number       Type             X           Y           Z
 ---------------------------------------------------------------------
      1         17           0        0.029092   -0.000000    0.000000
      2          1           0       -1.009408    0.000000   -0.000000
 ---------------------------------------------------------------------
 Symmetry turned off by external request.
 Stoichiometry    ClH
 Framework group  C*V[C*(HCl)]
 Deg. of freedom     1
 Full point group                 C*V     NOp   4
 Rotational constants (GHZ):           0.0000000         478.3641508         478.3641508
 Standard basis: 6-31G(d) (6D, 7F)
    21 basis functions,    56 primitive gaussians,    21 cartesian basis functions
     9 alpha electrons        9 beta electrons
       nuclear repulsion energy         8.6625050894 Hartrees.
 NAtoms=    2 NActive=    2 NUniq=    2 SFac= 1.00D+00 NAtFMM=   60 NAOKFM=F Big=F
 Integral buffers will be    131072 words long.
 Raffenetti 2 integral format.
 Two-electron integral symmetry is turned off.
 One-electron integrals computed using PRISM.
 NBasis=    21 RedAO= T EigKep=  1.95D-02  NBF=    21
 NBsUse=    21 1.00D-06 EigRej= -1.00D+00 NBFU=    21
 Keep R1 ints in memory in canonical form, NReq=6931411.
 Requested convergence on RMS density matrix=1.00D-08 within 128 cycles.
 Requested convergence on MAX density matrix=1.00D-06.
 Requested convergence on             energy=1.00D-06.
 No special actions if energy rises.
 SCF Done:  E(RB3LYP) =  -460.733360743     A.U. after    1 cycles
            NFock=  1  Conv=0.20D+01     -V/T= 2.0017
 Calling FoFJK, ICntrl=      2127 FMM=F ISym2X=0 I1Cent= 0 IOpClX= 0 NMat=1 NMatS=1 NMatT=0.
 -------------------------------------------------------------------
 Center     Atomic                   Forces (Hartrees/Bohr)
 Number     Number              X              Y              Z
 -------------------------------------------------------------------
      1       17           0.299841662   -0.000000000    0.000000000
      2        1          -0.299841662    0.000000000   -0.000000000
 -------------------------------------------------------------------
 Cartesian Forces:  Max     0.299841662 RMS     0.173113664
 TRJ-TRJ-TRJ-TRJ-TRJ-TRJ-TRJ-TRJ-TRJ-TRJ-TRJ-TRJ-TRJ-TRJ-TRJ-TRJ-TRJ-TRJ

 ADMP step     16
 Frobenius norm of [F,P] =     4.926890D-02
 Current gradient on entry to l121
 I=    1 X=  -2.998416616023D-01 Y=   0.000000000000D+00 Z=   0.000000000000D+00
 I=    2 X=   2.998416616023D-01 Y=   0.000000000000D+00 Z=   0.000000000000D+00

 Summary information for step     16
 Time (fs)     1.600000
 EKinC      =      0.0356566; EKinPA =      0.0024541; EKinPB =      0.0024541
 EKin       =      0.0405648; EPot   =   -460.7333607; ETot   =   -460.6927959
 ETot-EKinP =   -460.6977042
 Adiabaticity Index =   -2.3297D-03
 Integrand for the Velocity-Velocity Auto-Correlation  Function =   1.119719826074D-01
 Angular momentum
   JX =  0.8719184032D-64  JY = -0.8946616915D-30  JZ = -0.3235645485D-30
 Jtot =  0.9513745631D-30 H-BAR;  J (Quantum Number) =  0.0000000000D+00
 Total energy  -4.606927959D+02  Delta-E   2.762921D-05 A.U.
 Total angular momentum   9.513746D-31  Delta-A   3.047226D-31 h-bar
 Tr(PA)-NA =  3.553D-15
 Tr(PA**2-PA) = -3.805D-12
 Tr[(PA**2-PA)**2] =  9.125D-14
 Cartesian coordinates:
 I=    1 X=   5.497554019017D-02 Y=   0.000000000000D+00 Z=   0.000000000000D+00
 I=    2 X=  -1.907505269297D+00 Y=   0.000000000000D+00 Z=   0.000000000000D+00
 MW Cartesian velocity:
 I=    1 X=  -4.327843671692D+13 Y=   0.000000000000D+00 Z=   0.000000000000D+00
 I=    2 X=   2.549292600745D+14 Y=   0.000000000000D+00 Z=   0.000000000000D+00
 TRJ-TRJ-TRJ-TRJ-TRJ-TRJ-TRJ-TRJ-TRJ-TRJ-TRJ-TRJ-TRJ-TRJ-TRJ-TRJ-TRJ-TRJ
                          Input orientation:                          
 ---------------------------------------------------------------------
 Center     Atomic      Atomic             Coordinates (Angstroms)
 Number     Number       Type             X           Y           Z
 ---------------------------------------------------------------------
      1         17           0        0.028726   -0.000000    0.000000
      2          1           0       -0.996709    0.000000   -0.000000
 ---------------------------------------------------------------------
 Symmetry turned off by external request.
 Stoichiometry    ClH
 Framework group  C*V[C*(HCl)]
 Deg. of freedom     1
 Full point group                 C*V     NOp   4
 Rotational constants (GHZ):           0.0000000         490.6321465         490.6321465
 Standard basis: 6-31G(d) (6D, 7F)
    21 basis functions,    56 primitive gaussians,    21 cartesian basis functions
     9 alpha electrons        9 beta electrons
       nuclear repulsion energy         8.7728800219 Hartrees.
 NAtoms=    2 NActive=    2 NUniq=    2 SFac= 1.00D+00 NAtFMM=   60 NAOKFM=F Big=F
 Integral buffers will be    131072 words long.
 Raffenetti 2 integral format.
 Two-electron integral symmetry is turned off.
 One-electron integrals computed using PRISM.
 NBasis=    21 RedAO= T EigKep=  1.95D-02  NBF=    21
 NBsUse=    21 1.00D-06 EigRej= -1.00D+00 NBFU=    21
 Keep R1 ints in memory in canonical form, NReq=6931411.
 Requested convergence on RMS density matrix=1.00D-08 within 128 cycles.
 Requested convergence on MAX density matrix=1.00D-06.
 Requested convergence on             energy=1.00D-06.
 No special actions if energy rises.
 SCF Done:  E(RB3LYP) =  -460.724368880     A.U. after    1 cycles
            NFock=  1  Conv=0.20D+01     -V/T= 2.0017
 Calling FoFJK, ICntrl=      2127 FMM=F ISym2X=0 I1Cent= 0 IOpClX= 0 NMat=1 NMatS=1 NMatT=0.
 -------------------------------------------------------------------
 Center     Atomic                   Forces (Hartrees/Bohr)
 Number     Number              X              Y              Z
 -------------------------------------------------------------------
      1       17           0.335550810   -0.000000000    0.000000000
      2        1          -0.335550810    0.000000000   -0.000000000
 -------------------------------------------------------------------
 Cartesian Forces:  Max     0.335550810 RMS     0.193730350
 TRJ-TRJ-TRJ-TRJ-TRJ-TRJ-TRJ-TRJ-TRJ-TRJ-TRJ-TRJ-TRJ-TRJ-TRJ-TRJ-TRJ-TRJ

 ADMP step     17
 Frobenius norm of [F,P] =     5.408279D-02
 Current gradient on entry to l121
 I=    1 X=  -3.355508099784D-01 Y=   0.000000000000D+00 Z=   0.000000000000D+00
 I=    2 X=   3.355508099784D-01 Y=   0.000000000000D+00 Z=   0.000000000000D+00

[...]
     9 alpha electrons        9 beta electrons
       nuclear repulsion energy         6.1815411174 Hartrees.
 NAtoms=    2 NActive=    2 NUniq=    2 SFac= 1.00D+00 NAtFMM=   60 NAOKFM=F Big=F
 Integral buffers will be    131072 words long.
 Raffenetti 2 integral format.
 Two-electron integral symmetry is turned off.
 One-electron integrals computed using PRISM.
 NBasis=    21 RedAO= T EigKep=  1.97D-02  NBF=    21
 NBsUse=    21 1.00D-06 EigRej= -1.00D+00 NBFU=    21
 Keep R1 ints in memory in canonical form, NReq=6931411.
 Requested convergence on RMS density matrix=1.00D-08 within 128 cycles.
 Requested convergence on MAX density matrix=1.00D-06.
 Requested convergence on             energy=1.00D-06.
 No special actions if energy rises.
 SCF Done:  E(RB3LYP) =  -460.782734221     A.U. after    1 cycles
            NFock=  1  Conv=0.20D+01     -V/T= 2.0034
 Calling FoFJK, ICntrl=      2127 FMM=F ISym2X=0 I1Cent= 0 IOpClX= 0 NMat=1 NMatS=1 NMatT=0.
 -------------------------------------------------------------------
 Center     Atomic                   Forces (Hartrees/Bohr)
 Number     Number              X              Y              Z
 -------------------------------------------------------------------
      1       17          -0.066503590    0.000000000    0.000000000
      2        1           0.066503590   -0.000000000   -0.000000000
 -------------------------------------------------------------------
 Cartesian Forces:  Max     0.066503590 RMS     0.038395865
 TRJ-TRJ-TRJ-TRJ-TRJ-TRJ-TRJ-TRJ-TRJ-TRJ-TRJ-TRJ-TRJ-TRJ-TRJ-TRJ-TRJ-TRJ

 ADMP step     50
 Frobenius norm of [F,P] =     4.687440D-02
 Current gradient on entry to l121
 I=    1 X=   6.650358983019D-02 Y=   0.000000000000D+00 Z=   0.000000000000D+00
 I=    2 X=  -6.650358983018D-02 Y=   0.000000000000D+00 Z=   0.000000000000D+00

 Summary information for step     50
 Time (fs)     5.000000
 EKinC      =      0.0858202; EKinPA =      0.0020733; EKinPB =      0.0020733
 EKin       =      0.0899668; EPot   =   -460.7827342; ETot   =   -460.6927674
 ETot-EKinP =   -460.6969140
 Adiabaticity Index =    6.8640D-04
 Integrand for the Velocity-Velocity Auto-Correlation  Function =  -1.737138503257D-01
 Angular momentum
   JX = -0.1725810812D-60  JY = -0.4849877751D-29  JZ = -0.2965965228D-29
 Jtot =  0.5684915473D-29 H-BAR;  J (Quantum Number) =  0.0000000000D+00
 Total energy  -4.606927674D+02  Delta-E  -6.394770D-07 A.U.
 Total angular momentum   5.684915D-30  Delta-A   1.027812D-31 h-bar
 Tr(PA)-NA =  5.329D-15
 Tr(PA**2-PA) = -1.243D-11
 Tr[(PA**2-PA)**2] =  3.244D-13
 Cartesian coordinates:
 I=    1 X=   7.703999498622D-02 Y=   0.000000000000D+00 Z=   0.000000000000D+00
 I=    2 X=  -2.673083263475D+00 Y=   0.000000000000D+00 Z=   0.000000000000D+00
 MW Cartesian velocity:
 I=    1 X=   6.714236635902D+13 Y=   0.000000000000D+00 Z=   0.000000000000D+00
 I=    2 X=  -3.954984300268D+14 Y=   0.000000000000D+00 Z=   0.000000000000D+00


 Final analysis for traj   1
 Traj calculation does not meet the product criterion.


 Analysis of fragment    1

 Instantaneous rotational analysis:
 Q(CM): X= -0.246329638158D-17 Y= -0.510546198764D-48 Z=  0.402557002081D-48
 V(CM): X= -0.768936188213D-02 Y=  0.776049652044D-17 Z=  0.246833180735D-18
 Angular momentum in principle axes
   JX = -0.5480118346D-29  JY = -0.1512139822D-29  JZ = -0.4478936857D-76
 Jtot =  0.5684915473D-29  H-BAR;  J (Quantum Number) =  0.0000000000D+00
 Angular momentum in original axes
   JX = -0.1725810812D-60  JY = -0.4849877751D-29  JZ = -0.2965965228D-29
 Jtot =  0.5684915473D-29  H-BAR;  J (Quantum Number) =  0.0000000000D+00

 Etrn =  0.9243645938D-33 Erot =  0.1196487421D-62 Evib(kin) =  0.8582019700D-01 au
 Epot = -0.4606927674D+03 Etot = -0.4606069472D+03 au
 No diatomic information available for this fragment.

 Trajectory summary for trajectory      1
 Energy/Fock evaluations               51
 Gradient evaluations                  51

 Trajectory summary
   Time (fs)   Kinetic (au)   Potent (au)   Delta E (au)     Delta A (h-bar)
     0.000000     0.1000000  -460.7928191     0.0000000     0.0000000000000000
     0.100000     0.1011293  -460.7939503    -0.0000020     0.0000000000000000
     0.200000     0.1013434  -460.7941495     0.0000130     0.0000000000000000
     0.300000     0.1008972  -460.7936858     0.0000305     0.0000000000000000
     0.400000     0.1000831  -460.7928648     0.0000374    -0.0000000000000000
     0.500000     0.0990408  -460.7918292     0.0000307    -0.0000000000000000
     0.600000     0.0977042  -460.7905087     0.0000145    -0.0000000000000000
     0.700000     0.0958566  -460.7886813    -0.0000055    -0.0000000000000000
     0.800000     0.0932222  -460.7860640    -0.0000228     0.0000000000000000
     0.900000     0.0895730  -460.7824215    -0.0000294    -0.0000000000000000
     1.000000     0.0848419  -460.7776833    -0.0000223    -0.0000000000000000
     1.100000     0.0791556  -460.7719843    -0.0000096    -0.0000000000000000
     1.200000     0.0727211  -460.7655443    -0.0000042    -0.0000000000000000
     1.300000     0.0656483  -460.7584771    -0.0000097    -0.0000000000000000
     1.400000     0.0579061  -460.7507399    -0.0000147    -0.0000000000000000
     1.500000     0.0494788  -460.7423024    -0.0000045    -0.0000000000000000
     1.600000     0.0405648  -460.7333607     0.0000231     0.0000000000000000
     1.700000     0.0316069  -460.7243689     0.0000571     0.0000000000000000
     1.800000     0.0231424  -460.7158754     0.0000861     0.0000000000000000
     1.900000     0.0156405  -460.7083519     0.0001076     0.0000000000000000
     2.000000     0.0094578  -460.7021520     0.0001248     0.0000000000000000
     2.100000     0.0048749  -460.6975550     0.0001390     0.0000000000000000
     2.200000     0.0021164  -460.6947872     0.0001483     0.0000000000000000
     2.300000     0.0013280  -460.6939962     0.0001509     0.0000000000000000
     2.400000     0.0025495  -460.6952227     0.0001458     0.0000000000000000
     2.500000     0.0056970  -460.6983843     0.0001317     0.0000000000000000
     2.600000     0.0105447  -460.7032551     0.0001087     0.0000000000000000
     2.700000     0.0167343  -460.7094712     0.0000822     0.0000000000000000
     2.800000     0.0238584  -460.7166161     0.0000613     0.0000000000000000
     2.900000     0.0315842  -460.7243532     0.0000501     0.0000000000000000
     3.000000     0.0397075  -460.7324836     0.0000429     0.0000000000000000
     3.100000     0.0480774  -460.7408649     0.0000315     0.0000000000000000
     3.200000     0.0564832  -460.7492878     0.0000144     0.0000000000000000
     3.300000     0.0646314  -460.7574529    -0.0000024     0.0000000000000000
     3.400000     0.0722273  -460.7650595    -0.0000132     0.0000000000000000
     3.500000     0.0790547  -460.7718919    -0.0000181     0.0000000000000000
     3.600000     0.0849843  -460.7778230    -0.0000196     0.0000000000000000
     3.700000     0.0899476  -460.7827843    -0.0000176     0.0000000000000000
     3.800000     0.0939384  -460.7867682    -0.0000108     0.0000000000000000
     3.900000     0.0970217  -460.7898423    -0.0000015     0.0000000000000000
     4.000000     0.0992997  -460.7921136     0.0000052     0.0000000000000000
     4.100000     0.1008427  -460.7936543     0.0000075     0.0000000000000000
     4.200000     0.1016627  -460.7944728     0.0000089     0.0000000000000000
     4.300000     0.1017637  -460.7945684     0.0000144     0.0000000000000000
     4.400000     0.1012066  -460.7940016     0.0000240     0.0000000000000000
     4.500000     0.1001114  -460.7928968     0.0000337     0.0000000000000000
     4.600000     0.0986040  -460.7913824     0.0000406     0.0000000000000000
     4.700000     0.0967771  -460.7895504     0.0000457     0.0000000000000000
     4.800000     0.0946979  -460.7874670     0.0000501     0.0000000000000000
     4.900000     0.0924200  -460.7851867     0.0000523     0.0000000000000000
     5.000000     0.0899668  -460.7827342     0.0000517     0.0000000000000000
                             Max Error =      0.0001509     0.0000000000000000

 Density conservation (alpha)
    Time (fs)      Electron #     Av. Idempot     RMS Idempot
     0.000000 -0.000000000000  0.000000000000  0.000000000000
     0.100000 -0.000000000000  0.000000000000  0.000000000000
     0.200000  0.000000000000  0.000000000021  0.000000000001
     0.300000  0.000000000000 -0.000000000001  0.000000000000
     0.400000  0.000000000000 -0.000000000002  0.000000000000
     0.500000  0.000000000000 -0.000000000004  0.000000000000
     0.600000 -0.000000000000 -0.000000000006  0.000000000000
     0.700000  0.000000000000 -0.000000000008  0.000000000000
     0.800000 -0.000000000000 -0.000000000009  0.000000000000
     0.900000 -0.000000000000 -0.000000000009  0.000000000000
     1.000000 -0.000000000000 -0.000000000008  0.000000000000
     1.100000  0.000000000000 -0.000000000006  0.000000000000
     1.200000  0.000000000000 -0.000000000005  0.000000000000
     1.300000 -0.000000000000 -0.000000000005  0.000000000000
     1.400000  0.000000000000 -0.000000000004  0.000000000000
     1.500000  0.000000000000 -0.000000000004  0.000000000000
     1.600000  0.000000000000 -0.000000000004  0.000000000000
     1.700000 -0.000000000000 -0.000000000004  0.000000000000
     1.800000  0.000000000000 -0.000000000004  0.000000000000
     1.900000 -0.000000000000 -0.000000000003  0.000000000000
     2.000000 -0.000000000000 -0.000000000002  0.000000000000
     2.100000  0.000000000000 -0.000000000000  0.000000000000
     2.200000  0.000000000000  0.000000000000  0.000000000000
     2.300000  0.000000000000 -0.000000000000  0.000000000000
     2.400000  0.000000000000 -0.000000000001  0.000000000000
     2.500000  0.000000000000 -0.000000000003  0.000000000000
     2.600000 -0.000000000000 -0.000000000004  0.000000000000
     2.700000 -0.000000000000 -0.000000000004  0.000000000000
     2.800000  0.000000000000 -0.000000000004  0.000000000000
     2.900000 -0.000000000000 -0.000000000004  0.000000000000
     3.000000 -0.000000000000 -0.000000000005  0.000000000000
     3.100000 -0.000000000000 -0.000000000006  0.000000000000
     3.200000 -0.000000000000 -0.000000000007  0.000000000000
     3.300000  0.000000000000 -0.000000000007  0.000000000000
     3.400000 -0.000000000000 -0.000000000007  0.000000000000
     3.500000  0.000000000000 -0.000000000006  0.000000000000
     3.600000  0.000000000000 -0.000000000005  0.000000000000
     3.700000  0.000000000000 -0.000000000005  0.000000000000
     3.800000  0.000000000000 -0.000000000005  0.000000000000
     3.900000  0.000000000000 -0.000000000004  0.000000000000
     4.000000 -0.000000000000 -0.000000000004  0.000000000000
     4.100000 -0.000000000000 -0.000000000003  0.000000000000
     4.200000 -0.000000000000 -0.000000000003  0.000000000000
     4.300000  0.000000000000 -0.000000000002  0.000000000000
     4.400000  0.000000000000 -0.000000000002  0.000000000000
     4.500000  0.000000000000 -0.000000000002  0.000000000000
     4.600000  0.000000000000 -0.000000000002  0.000000000000
     4.700000  0.000000000000 -0.000000000004  0.000000000000
     4.800000  0.000000000000 -0.000000000006  0.000000000000
     4.900000  0.000000000000 -0.000000000009  0.000000000000
     5.000000  0.000000000000 -0.000000000012  0.000000000000
 Max Error =  -0.000000000000  0.000000000021  0.000000000001

 Bond Length (in Angs) of Fragment Number  1
 Atom Cl and Atom H 
        0.0000000000        1.3656680000
        0.1000000000        1.3424212671
        0.2000000000        1.3191047105
        0.3000000000        1.2958429501
        0.4000000000        1.2727560348
        0.5000000000        1.2499506709
        0.6000000000        1.2275155395
        0.7000000000        1.2055214326
        0.8000000000        1.1840255818
        0.9000000000        1.1630789731
        1.0000000000        1.1427352086
        1.1000000000        1.1230593320
        1.2000000000        1.1041352625
        1.3000000000        1.0860709991
        1.4000000000        1.0690009531
        1.5000000000        1.0530845341
        1.6000000000        1.0385001212
        1.7000000000        1.0254343572
        1.8000000000        1.0140681028
        1.9000000000        1.0045617173
        2.0000000000        0.9970428920
        2.1000000000        0.9915997067
        2.2000000000        0.9882800362
        2.3000000000        0.9870965725
        2.4000000000        0.9880353101
        2.5000000000        0.9910647802
        2.6000000000        0.9961435094
        2.7000000000        1.0032238571
        2.8000000000        1.0122513924
        2.9000000000        1.0231602873
        3.0000000000        1.0358666160
        3.1000000000        1.0502624511
        3.2000000000        1.0662136289
        3.3000000000        1.0835627749
        3.4000000000        1.1021371297
        3.5000000000        1.1217589203
        3.6000000000        1.1422554090
        3.7000000000        1.1634663372
        3.8000000000        1.1852476185
        3.9000000000        1.2074713567
        4.0000000000        1.2300234916
        4.1000000000        1.2528010003
        4.2000000000        1.2757099980
        4.3000000000        1.2986650048
        4.4000000000        1.3215890601
        4.5000000000        1.3444142636
        4.6000000000        1.3670821558
        4.7000000000        1.3895433366
        4.8000000000        1.4117562616
        4.9000000000        1.4336858347
        5.0000000000        1.4553025556

 Relative MW speed (sqrt(amu)*bohr/fs) of Fragment Number  1
 Atom Cl and Atom H 
        0.0000000000        0.4994007305
        0.1000000000        0.5021859846
        0.2000000000        0.5023480551
        0.3000000000        0.4998713698
        0.4000000000        0.4949491251
        0.5000000000        0.4879196225
        0.6000000000        0.4791702002
        0.7000000000        0.4690400410
        0.8000000000        0.4577427523
        0.9000000000        0.4453174794
        1.0000000000        0.4316126095
        1.1000000000        0.4163011698
        1.2000000000        0.3989198903
        1.3000000000        0.3789242113
        1.4000000000        0.3557596676
        1.5000000000        0.3289520658
        1.6000000000        0.2982076968
        1.7000000000        0.2634997952
        1.8000000000        0.2251118273
        1.9000000000        0.1836172294
        2.0000000000        0.1397955373
        2.1000000000        0.0945075708
        2.2000000000        0.0485663894
        2.3000000000        0.0026393754
        2.4000000000        0.0427971967
        2.5000000000        0.0874470874
        2.6000000000        0.1311358819
        2.7000000000        0.1737238310
        2.8000000000        0.2150147877
        2.9000000000        0.2546906465
        3.0000000000        0.2922973640
        3.1000000000        0.3272931253
        3.2000000000        0.3591446415
        3.3000000000        0.3874356557
        3.4000000000        0.4119461721
        3.5000000000        0.4326764242
        3.6000000000        0.4498153033
        3.7000000000        0.4636718167
        3.8000000000        0.4745949919
        3.9000000000        0.4829086634
        4.0000000000        0.4888810896
        4.1000000000        0.4927298615
        4.2000000000        0.4946441817
        4.3000000000        0.4948065778
        4.4000000000        0.4934066470
        4.5000000000        0.4906439227
        4.6000000000        0.4867179315
        4.7000000000        0.4818111015
        4.8000000000        0.4760777014
        4.9000000000        0.4696476290
        5.0000000000        0.4626407964
 TRJ-TRJ-TRJ-TRJ-TRJ-TRJ-TRJ-TRJ-TRJ-TRJ-TRJ-TRJ-TRJ-TRJ-TRJ-TRJ-TRJ-TRJ
                          Input orientation:                          
 ---------------------------------------------------------------------
 Center     Atomic      Atomic             Coordinates (Angstroms)
 Number     Number       Type             X           Y           Z
 ---------------------------------------------------------------------
      1         17           0        0.040768   -0.000000    0.000000
      2          1           0       -1.414535    0.000000   -0.000000
 ---------------------------------------------------------------------
 Symmetry turned off by external request.
 Stoichiometry    ClH
 Framework group  C*V[C*(HCl)]
 Deg. of freedom     1
 Full point group                 C*V     NOp   4
 Rotational constants (GHZ):           0.0000000         243.5931911         243.5931911

 **********************************************************************

            Population analysis using the SCF Density.

 **********************************************************************

 Alpha  occ. eigenvalues -- -101.55929  -9.47542  -7.23996  -7.22920  -7.22920
 Alpha  occ. eigenvalues --   -0.83819  -0.46672  -0.33010  -0.33010
 Alpha virt. eigenvalues --   -0.01620   0.37781   0.42222   0.43697   0.43697
 Alpha virt. eigenvalues --    0.66939   0.83720   0.83720   0.86548   0.86548
 Alpha virt. eigenvalues --    1.10900   4.19914
          Condensed to atoms (all electrons):
               1          2
     1  Cl  17.017608   0.255634
     2  H    0.255634   0.471123
 Mulliken charges:
               1
     1  Cl  -0.273242
     2  H    0.273242
 Sum of Mulliken charges =   0.00000
 Mulliken charges with hydrogens summed into heavy atoms:
               1
     1  Cl   0.000000
 Electronic spatial extent (au):  <R**2>=             35.2431
 Charge=              0.0000 electrons
 Dipole moment (field-independent basis, Debye):
    X=             -1.8457    Y=              0.0000    Z=              0.0000  Tot=              1.8457
 Quadrupole moment (field-independent basis, Debye-Ang):
   XX=             -9.6588   YY=            -13.9989   ZZ=            -13.9989
   XY=              0.0000   XZ=             -0.0000   YZ=             -0.0000
 Traceless Quadrupole moment (field-independent basis, Debye-Ang):
   XX=              2.8934   YY=             -1.4467   ZZ=             -1.4467
   XY=              0.0000   XZ=             -0.0000   YZ=             -0.0000
 Octapole moment (field-independent basis, Debye-Ang**2):
  XXX=             -2.8505  YYY=              0.0000  ZZZ=              0.0000  XYY=              0.3582
  XXY=              0.0000  XXZ=             -0.0000  XZZ=              0.3582  YZZ=              0.0000
  YYZ=             -0.0000  XYZ=             -0.0000
 Hexadecapole moment (field-independent basis, Debye-Ang**3):
 XXXX=            -13.5768 YYYY=            -15.5552 ZZZZ=            -15.5552 XXXY=             -0.0000
 XXXZ=              0.0000 YYYX=              0.0000 YYYZ=              0.0000 ZZZX=             -0.0000
 ZZZY=              0.0000 XXYY=             -6.0420 XXZZ=             -6.0420 YYZZ=             -5.1851
 XXYZ=              0.0000 YYXZ=             -0.0000 ZZXY=              0.0000
 N-N= 6.181541117364D+00 E-N=-1.107598547301D+03  KE= 4.592434948356D+02
 Unable to Open any file for archive entry.
 1\1\GINC-SPARTAN-BM197\ADMP\RB3LYP\6-31G(d)\Cl1H1\AKHALILOV\19-Mar-202
 5\0\\# B3LYP/6-31G(d) ADMP int=ultrafine\\HCl ADMP thermal decompositi
 on simulation targeting 600K\\0,1\Cl,0.0407678097,0.,0.\H,-1.414534745
 9,0.,0.\\Version=ES64L-G16RevC.01\HF=-460.7827342\RMSD=2.000e+00\RMSF=
 3.840e-02\Dipole=-0.7261563,0.,0.\Quadrupole=2.151207,-1.0756035,-1.07
 56035,0.,0.,0.\PG=C*V [C*(H1Cl1)]\\@
 The archive entry for this job was punched.


 DEPRESSION IS WAITING FOR YOUR SHIP TO COME IN,
 AND FINDING OUT IT'S THE TITANIC.
 Job cpu time:       0 days  0 hours  2 minutes 59.9 seconds.
 Elapsed time:       0 days  0 hours  0 minutes 57.8 seconds.
 File lengths (MBytes):  RWF=      6 Int=      0 D2E=      0 Chk=      1 Scr=      1
 Normal termination of Gaussian 16 at Wed Mar 19 15:07:18 2025.
