 Entering Gaussian System, Link 0=g16
 Input=SO2_ADMP_600K.gjf
 Output=SO2_ADMP_600K.log
 Initial command:
 /apps/easybuild-2022/easybuild/software/Compiler/NVHPC/22.11-CUDA-11.7.0/Gaussian/g16c01-CUDA-11.7.0/g16/l1.exe "/tmp/Gau-84078.inp" -scrdir="/tmp/"
 Default is to use a total of   4 processors:
                                4 via shared-memory
                                1 via Linda
 Entering Link 1 = /apps/easybuild-2022/easybuild/software/Compiler/NVHPC/22.11-CUDA-11.7.0/Gaussian/g16c01-CUDA-11.7.0/g16/l1.exe PID=     84079.
  
 Copyright (c) 1988-2019, Gaussian, Inc.  All Rights Reserved.
  
 This is part of the Gaussian(R) 16 program.  It is based on
 the Gaussian(R) 09 system (copyright 2009, Gaussian, Inc.),
 the Gaussian(R) 03 system (copyright 2003, Gaussian, Inc.),
 the Gaussian(R) 98 system (copyright 1998, Gaussian, Inc.),
 the Gaussian(R) 94 system (copyright 1995, Gaussian, Inc.),
 the Gaussian 92(TM) system (copyright 1992, Gaussian, Inc.),
 the Gaussian 90(TM) system (copyright 1990, Gaussian, Inc.),
 the Gaussian 88(TM) system (copyright 1988, Gaussian, Inc.),
 the Gaussian 86(TM) system (copyright 1986, Carnegie Mellon
 University), and the Gaussian 82(TM) system (copyright 1983,
 Carnegie Mellon University). Gaussian is a federally registered
 trademark of Gaussian, Inc.
  
 This software contains proprietary and confidential information,
 including trade secrets, belonging to Gaussian, Inc.
  
 This software is provided under written license and may be
 used, copied, transmitted, or stored only in accord with that
 written license.
  
 The following legend is applicable only to US Government
 contracts under FAR:
  
                    RESTRICTED RIGHTS LEGEND
  
 Use, reproduction and disclosure by the US Government is
 subject to restrictions as set forth in subparagraphs (a)
 and (c) of the Commercial Computer Software - Restricted
 Rights clause in FAR 52.227-19.
  
 Gaussian, Inc.
 340 Quinnipiac St., Bldg. 40, Wallingford CT 06492
  
  
 ---------------------------------------------------------------
 Warning -- This program may not be used in any manner that
 competes with the business of Gaussian, Inc. or will provide
 assistance to any competitor of Gaussian, Inc.  The licensee
 of this program is prohibited from giving any competitor of
 Gaussian, Inc. access to this program.  By using this program,
 the user acknowledges that Gaussian, Inc. is engaged in the
 business of creating and licensing software in the field of
 computational chemistry and represents and warrants to the
 licensee that it is not a competitor of Gaussian, Inc. and that
 it will not use this program in any manner prohibited above.
 ---------------------------------------------------------------
  

 Cite this work as:
 Gaussian 16, Revision C.01,
 M. J. Frisch, G. W. Trucks, H. B. Schlegel, G. E. Scuseria, 
 M. A. Robb, J. R. Cheeseman, G. Scalmani, V. Barone, 
 G. A. Petersson, H. Nakatsuji, X. Li, M. Caricato, A. V. Marenich, 
 J. Bloino, B. G. Janesko, R. Gomperts, B. Mennucci, H. P. Hratchian, 
 J. V. Ortiz, A. F. Izmaylov, J. L. Sonnenberg, D. Williams-Young, 
 F. Ding, F. Lipparini, F. Egidi, J. Goings, B. Peng, A. Petrone, 
 T. Henderson, D. Ranasinghe, V. G. Zakrzewski, J. Gao, N. Rega, 
 G. Zheng, W. Liang, M. Hada, M. Ehara, K. Toyota, R. Fukuda, 
 J. Hasegawa, M. Ishida, T. Nakajima, Y. Honda, O. Kitao, H. Nakai, 
 T. Vreven, K. Throssell, J. A. Montgomery, Jr., J. E. Peralta, 
 F. Ogliaro, M. J. Bearpark, J. J. Heyd, E. N. Brothers, K. N. Kudin, 
 V. N. Staroverov, T. A. Keith, R. Kobayashi, J. Normand, 
 K. Raghavachari, A. P. Rendell, J. C. Burant, S. S. Iyengar, 
 J. Tomasi, M. Cossi, J. M. Millam, M. Klene, C. Adamo, R. Cammi, 
 J. W. Ochterski, R. L. Martin, K. Morokuma, O. Farkas, 
 J. B. Foresman, and D. J. Fox, Gaussian, Inc., Wallingford CT, 2019.
 
 ******************************************
 Gaussian 16:  ES64L-G16RevC.01  3-Jul-2019
                19-Mar-2025 
 ******************************************
 %chk=SO2_ADMP TRJTRY RSTF=10_600K.chk
 %mem=8GB
 %nprocshared=8
 Will use up to    8 processors via shared memory.
 -----------------------------------
 # B3LYP/6-31G(d) ADMP int=ultrafine
 -----------------------------------
 1/26=4,29=20000,38=1,172=1/1,21;
 2/12=2,17=6,18=5,29=2,40=1/2;
 3/5=1,6=6,7=1,11=2,25=1,30=1,65=-1,71=1,74=-5,75=-5,89=400,90=600/1,2,3;
 4//1;
 5/5=2,14=200,38=5/2;
 6/7=2,8=2,9=2,10=2,28=1/1;
 7/7=1,127=-100/1,2,3,16;
 1/26=4/21(2);
 2/29=1/2;
 99/12=1/99;
 2/29=1/2;
 3/5=1,6=6,7=1,11=2,25=1,30=1,65=-1,71=1,74=-5,75=-5,89=400,90=600/1,2,3;
 5/5=2,14=100/2;
 7/7=1,127=-100/1,2,3,16;
 1/26=4/21(-4);
 2/29=1/2;
 6/7=2,8=2,9=2,10=2,19=2,28=1/1;
 99/9=1,12=1/99;
 --------------------------------------------------------
 SO2 ADMP thermal decomposition simulation targeting 600K
 --------------------------------------------------------
 Symbolic Z-matrix:
 Charge =  0 Multiplicity = 1
 O                    -1.31691  -0.51942   0. 
 S                    -0.0963    0.60234   0. 
 O                     1.41321  -0.08292   0. 
 
 TRJ-TRJ-TRJ-TRJ-TRJ-TRJ-TRJ-TRJ-TRJ-TRJ-TRJ-TRJ-TRJ-TRJ-TRJ-TRJ-TRJ-TRJ
 ------------------------------------------------------------------------
 INPUT DATA FOR L121
 ------------------------------------------------------------------------

 General parameters:
 Maximum Steps                =      50
 Random Number Generator Seed =    398465
 Time Step                    =  0.10000 femtosec
 Ficticious electronic mass   =  0.10000 amu
 MW individual basis funct.   = True 
 Initial nuclear kin. energy  =  0.10000 hartree
 Initial electr. kin. energy  =  0.00000 hartree
   Initial electr. KE scheme  =  0
 Multitime step - NDtrC       =       1
 Multitime step - NDtrP       =       1
 No Thermostats chosen to control nuclear temperature

 Integration parameters:

 Follow Rxn Path (DVV)        = False
 Constraint Scheme            =      10
 Projection of angular mom.   = True 
 Rotate density with nuclei   = True 
 ------------------------------------------------------------------------
 TRJ-TRJ-TRJ-TRJ-TRJ-TRJ-TRJ-TRJ-TRJ-TRJ-TRJ-TRJ-TRJ-TRJ-TRJ-TRJ-TRJ-TRJ
 ---------------------------------------------------------------------------------------------------
                            Z-MATRIX (ANGSTROMS AND DEGREES)
   CD    Cent   Atom    N1       Length/X        N2       Alpha/Y        N3        Beta/Z          J
 ---------------------------------------------------------------------------------------------------
      1      1  O        0  -1.316907         -0.519420          0.000000
      2      2  S        0  -0.096304          0.602340          0.000000
      3      3  O        0   1.413211         -0.082921          0.000000
 ---------------------------------------------------------------------------------------------------
                         Z-Matrix orientation:                         
 ---------------------------------------------------------------------
 Center     Atomic      Atomic             Coordinates (Angstroms)
 Number     Number       Type             X           Y           Z
 ---------------------------------------------------------------------
      1          8           0       -1.316907   -0.519420    0.000000
      2         16           0       -0.096304    0.602340    0.000000
      3          8           0        1.413211   -0.082921    0.000000
 ---------------------------------------------------------------------
                    Distance matrix (angstroms):
                    1          2          3
     1  O    0.000000
     2  S    1.657775   0.000000
     3  O    2.764792   1.657775   0.000000
 Symmetry turned off by external request.
 Stoichiometry    O2S
 Framework group  C2V[C2(S),SGV(O2)]
 Deg. of freedom     2
 Full point group                 C2V     NOp   4
 Rotational constants (GHZ):          37.7508978           8.2668544           6.7817562
 Standard basis: 6-31G(d) (6D, 7F)
    49 basis functions,   108 primitive gaussians,    49 cartesian basis functions
    16 alpha electrons       16 beta electrons
       nuclear repulsion energy        93.9670941900 Hartrees.
 NAtoms=    3 NActive=    3 NUniq=    3 SFac= 1.00D+00 NAtFMM=   60 NAOKFM=F Big=F
 Integral buffers will be    131072 words long.
 Raffenetti 2 integral format.
 Two-electron integral symmetry is turned off.
 One-electron integrals computed using PRISM.
 NBasis=    49 RedAO= T EigKep=  1.40D-02  NBF=    49
 NBsUse=    49 1.00D-06 EigRej= -1.00D+00 NBFU=    49
 ExpMin= 1.17D-01 ExpMax= 2.19D+04 ExpMxC= 3.30D+03 IAcc=3 IRadAn=         5 AccDes= 0.00D+00
 Harris functional with IExCor=  402 and IRadAn=       5 diagonalized for initial guess.
 HarFok:  IExCor=  402 AccDes= 0.00D+00 IRadAn=         5 IDoV= 1 UseB2=F ITyADJ=14
 ICtDFT=  3500011 ScaDFX=  1.000000  1.000000  1.000000  1.000000
 FoFCou: FMM=F IPFlag=           0 FMFlag=      100000 FMFlg1=           0
         NFxFlg=           0 DoJE=T BraDBF=F KetDBF=T FulRan=T
         wScrn=  0.000000 ICntrl=       500 IOpCl=  0 I1Cent=   200000004 NGrid=           0
         NMat0=    1 NMatS0=      1 NMatT0=    0 NMatD0=    1 NMtDS0=    0 NMtDT0=    0
 Symmetry not used in FoFCou.
 Keep R1 ints in memory in canonical form, NReq=7731660.
 Requested convergence on RMS density matrix=1.00D-08 within 128 cycles.
 Requested convergence on MAX density matrix=1.00D-06.
 Requested convergence on             energy=1.00D-06.
 No special actions if energy rises.
 Integral accuracy reduced to 1.0D-05 until final iterations.
 Initial convergence to 1.0D-05 achieved.  Increase integral accuracy.
 SCF Done:  E(RB3LYP) =  -548.530573842     A.U. after   14 cycles
            NFock= 14  Conv=0.70D-08     -V/T= 2.0061

 **********************************************************************

            Population analysis using the SCF Density.

 **********************************************************************

 Alpha  occ. eigenvalues --  -89.09162 -19.22763 -19.22762  -8.13043  -6.09399
 Alpha  occ. eigenvalues --   -6.09334  -6.08988  -1.04855  -0.98120  -0.69068
 Alpha  occ. eigenvalues --   -0.47397  -0.45336  -0.44304  -0.33592  -0.33129
 Alpha  occ. eigenvalues --   -0.33127
 Alpha virt. eigenvalues --   -0.18385  -0.02884  -0.01894   0.22425   0.29734
 Alpha virt. eigenvalues --    0.30771   0.32041   0.60329   0.60986   0.62507
 Alpha virt. eigenvalues --    0.73483   0.77794   0.91316   0.94138   0.95440
 Alpha virt. eigenvalues --    0.96453   0.98255   0.99837   1.21332   1.32542
 Alpha virt. eigenvalues --    1.76497   1.76687   1.77058   1.77426   1.78648
 Alpha virt. eigenvalues --    1.87013   1.88022   1.99636   2.34370   2.49090
 Alpha virt. eigenvalues --    3.47991   3.49939   3.89376
          Condensed to atoms (all electrons):
               1          2          3
     1  O    8.242209   0.216832  -0.026575
     2  S    0.216832  14.701405   0.216831
     3  O   -0.026575   0.216831   8.242210
 Mulliken charges:
               1
     1  O   -0.432466
     2  S    0.864932
     3  O   -0.432466
 Sum of Mulliken charges =   0.00000
 Mulliken charges with hydrogens summed into heavy atoms:
               1
     1  O   -0.432466
     2  S    0.864932
     3  O   -0.432466
 Electronic spatial extent (au):  <R**2>=            188.0105
 Charge=              0.0000 electrons
 Dipole moment (field-independent basis, Debye):
    X=             -0.3796    Y=              2.3744    Z=              0.0000  Tot=              2.4045
 Quadrupole moment (field-independent basis, Debye-Ang):
   XX=            -27.2670   YY=            -21.8007   ZZ=            -21.2044
   XY=             -0.8969   XZ=              0.0000   YZ=              0.0000
 Traceless Quadrupole moment (field-independent basis, Debye-Ang):
   XX=             -3.8429   YY=              1.6234   ZZ=              2.2196
   XY=             -0.8969   XZ=              0.0000   YZ=              0.0000
 Octapole moment (field-independent basis, Debye-Ang**2):
  XXX=              1.2697  YYY=             -9.6101  ZZZ=              0.0000  XYY=              0.6947
  XXY=             -2.6763  XXZ=              0.0000  XZZ=              0.5252  YZZ=             -3.2851
  YYZ=              0.0000  XYZ=              0.0000
 Hexadecapole moment (field-independent basis, Debye-Ang**3):
 XXXX=           -150.2907 YYYY=            -53.8420 ZZZZ=            -19.1739 XXXY=             -8.7314
 XXXZ=              0.0000 YYYX=             -7.0936 YYYZ=             -0.0000 ZZZX=             -0.0000
 ZZZY=              0.0000 XXYY=            -32.5377 XXZZ=            -26.5601 YYZZ=            -12.0185
 XXYZ=              0.0000 YYXZ=             -0.0000 ZZXY=             -2.3859
 N-N= 9.396709419003D+01 E-N=-1.487569943910D+03  KE= 5.452108928026D+02
 Calling FoFJK, ICntrl=      2127 FMM=F ISym2X=0 I1Cent= 0 IOpClX= 0 NMat=1 NMatS=1 NMatT=0.
 -------------------------------------------------------------------
 Center     Atomic                   Forces (Hartrees/Bohr)
 Number     Number              X              Y              Z
 -------------------------------------------------------------------
      1        8           0.087217061    0.087658011    0.000000000
      2       16           0.022976878   -0.143749716   -0.000000000
      3        8          -0.110193939    0.056091705    0.000000000
 -------------------------------------------------------------------
 Cartesian Forces:  Max     0.143749716 RMS     0.075844610
 TRJ-TRJ-TRJ-TRJ-TRJ-TRJ-TRJ-TRJ-TRJ-TRJ-TRJ-TRJ-TRJ-TRJ-TRJ-TRJ-TRJ-TRJ

 ADMP step      0
 Frobenius norm of [F,P] =     3.661799D-13
 Current gradient on entry to l121
 I=    1 X=  -8.721706111700D-02 Y=  -8.765801130142D-02 Z=   0.000000000000D+00
 I=    2 X=  -2.297687810953D-02 Y=   1.437497161853D-01 Z=   0.000000000000D+00
 I=    3 X=   1.101939392265D-01 Y=  -5.609170488380D-02 Z=   0.000000000000D+00

 Summary information for step      0
 Time (fs)     0.000000
 EKinC      =      0.1000000; EKinPA =      0.0000000; EKinPB =      0.0000000
 EKin       =      0.1000000; EPot   =   -548.5305738; ETot   =   -548.4305738
 ETot-EKinP =   -548.4305738
 Integrand for the Velocity-Velocity Auto-Correlation  Function =   1.875165883249D-01
 Angular momentum
   JX = -0.8985701599D-31  JY = -0.5533821917D-30  JZ =  0.1714926361D-14
 Jtot =  0.1714926361D-14 H-BAR;  J (Quantum Number) =  0.0000000000D+00
 Total energy  -5.484305738D+02 A.U.
 Total angular momentum   1.714926D-15 h-bar
 Tr(PA)-NA = -2.487D-14
 Tr(PA**2-PA) =  5.329D-15
 Tr[(PA**2-PA)**2] =  4.977D-16
 Cartesian coordinates:
 I=    1 X=  -2.443134408822D+00 Y=  -1.265888472181D+00 Z=   0.000000000000D+00
 I=    2 X=  -1.365290319995D-01 Y=   8.539307053109D-01 Z=   0.000000000000D+00
 I=    3 X=   2.716040898923D+00 Y=  -4.410249085347D-01 Z=   0.000000000000D+00
 MW Cartesian velocity:
 I=    1 X=   1.662517215942D+14 Y=   2.191217086252D+14 Z=   0.000000000000D+00
 I=    2 X=   7.760794003511D+12 Y=  -2.498277330681D+14 Z=   0.000000000000D+00
 I=    3 X=  -1.772240950908D+14 Y=   1.340899854082D+14 Z=   0.000000000000D+00
 TRJ-TRJ-TRJ-TRJ-TRJ-TRJ-TRJ-TRJ-TRJ-TRJ-TRJ-TRJ-TRJ-TRJ-TRJ-TRJ-TRJ-TRJ
                          Input orientation:                          
 ---------------------------------------------------------------------
 Center     Atomic      Atomic             Coordinates (Angstroms)
 Number     Number       Type             X           Y           Z
 ---------------------------------------------------------------------
      1          8           0       -1.290638   -0.666966   -0.000000
      2         16           0       -0.072174    0.449531   -0.000000
      3          8           0        1.434905   -0.231597    0.000000
 ---------------------------------------------------------------------
                    Distance matrix (angstroms):
                    1          2          3
     1  O    0.000000
     2  S    1.652641   0.000000
     3  O    2.760096   1.653851   0.000000
 Symmetry turned off by external request.
 Stoichiometry    O2S
 Framework group  CS[SG(O2S)]
 Deg. of freedom     3
 Full point group                 CS      NOp   2
 Rotational constants (GHZ):          38.1385425           8.2950091           6.8131674
 Standard basis: 6-31G(d) (6D, 7F)
    49 basis functions,   108 primitive gaussians,    49 cartesian basis functions
    16 alpha electrons       16 beta electrons
       nuclear repulsion energy        94.2118117475 Hartrees.
 NAtoms=    3 NActive=    3 NUniq=    3 SFac= 1.00D+00 NAtFMM=   60 NAOKFM=F Big=F
 Integral buffers will be    131072 words long.
 Raffenetti 2 integral format.
 Two-electron integral symmetry is turned off.
 One-electron integrals computed using PRISM.
 NBasis=    49 RedAO= T EigKep=  1.40D-02  NBF=    49
 NBsUse=    49 1.00D-06 EigRej= -1.00D+00 NBFU=    49
 Keep R1 ints in memory in canonical form, NReq=7731660.
 Requested convergence on RMS density matrix=1.00D-08 within 128 cycles.
 Requested convergence on MAX density matrix=1.00D-06.
 Requested convergence on             energy=1.00D-06.
 No special actions if energy rises.
 SCF Done:  E(RB3LYP) =  -548.532538266     A.U. after    1 cycles
            NFock=  1  Conv=0.20D+01     -V/T= 2.0060
 Calling FoFJK, ICntrl=      2127 FMM=F ISym2X=0 I1Cent= 0 IOpClX= 0 NMat=1 NMatS=1 NMatT=0.
 -------------------------------------------------------------------
 Center     Atomic                   Forces (Hartrees/Bohr)
 Number     Number              X              Y              Z
 -------------------------------------------------------------------
      1        8           0.068632649    0.066746838    0.000000000
      2       16           0.029909960   -0.113254221   -0.000000000
      3        8          -0.098542609    0.046507383    0.000000000
 -------------------------------------------------------------------
 Cartesian Forces:  Max     0.113254221 RMS     0.062147037
 TRJ-TRJ-TRJ-TRJ-TRJ-TRJ-TRJ-TRJ-TRJ-TRJ-TRJ-TRJ-TRJ-TRJ-TRJ-TRJ-TRJ-TRJ

 ADMP step      1
 Frobenius norm of [F,P] =     4.082929D-02
 Current gradient on entry to l121
 I=    1 X=  -6.863264945773D-02 Y=  -6.674683789294D-02 Z=   0.000000000000D+00
 I=    2 X=  -2.990995956761D-02 Y=   1.132542211591D-01 Z=   0.000000000000D+00
 I=    3 X=   9.854260902534D-02 Y=  -4.650738326622D-02 Z=   0.000000000000D+00

 Summary information for step      1
 Time (fs)     0.100000
 EKinC      =      0.1019627; EKinPA =      0.0000049; EKinPB =      0.0000049
 EKin       =      0.1019725; EPot   =   -548.5325383; ETot   =   -548.4305658
 ETot-EKinP =   -548.4305755
 Adiabaticity Index =    4.4730D-27
 Total Fictitiious Kinetic Energy =      0.0000976
 Integrand for the Velocity-Velocity Auto-Correlation  Function =   1.893474265117D-01
 Angular momentum
   JX = -0.1636267296D-29  JY =  0.2355513724D-29  JZ = -0.1432253853D-13
 Jtot =  0.1432253853D-13 H-BAR;  J (Quantum Number) =  0.0000000000D+00
 Total energy  -5.484305658D+02  Delta-E   8.069536D-06 A.U.
 Total angular momentum   1.432254D-14  Delta-A   1.260761D-14 h-bar
 Tr(PA)-NA =  0.000D+00
 Tr(PA**2-PA) =  2.132D-14
 Tr[(PA**2-PA)**2] =  4.240D-16
 Cartesian coordinates:
 I=    1 X=  -2.438951892881D+00 Y=  -1.260383867149D+00 Z=   0.000000000000D+00
 I=    2 X=  -1.363884103361D-01 Y=   8.494913273922D-01 Z=   0.000000000000D+00
 I=    3 X=   2.711577295773D+00 Y=  -4.376556863062D-01 Z=   0.000000000000D+00
 MW Cartesian velocity:
 I=    1 X=   1.680809419933D+14 Y=   2.209254767587D+14 Z=   0.000000000000D+00
 I=    2 X=   8.197295855894D+12 Y=  -2.519588071973D+14 Z=   0.000000000000D+00
 I=    3 X=  -1.796704509729D+14 Y=   1.352991746195D+14 Z=   0.000000000000D+00
 TRJ-TRJ-TRJ-TRJ-TRJ-TRJ-TRJ-TRJ-TRJ-TRJ-TRJ-TRJ-TRJ-TRJ-TRJ-TRJ-TRJ-TRJ
                          Input orientation:                          
 ---------------------------------------------------------------------
 Center     Atomic      Atomic             Coordinates (Angstroms)
 Number     Number       Type             X           Y           Z
 ---------------------------------------------------------------------
      1          8           0       -1.288403   -0.664033    0.000000
      2         16           0       -0.072095    0.447165   -0.000000
      3          8           0        1.432512   -0.229800   -0.000000
 ---------------------------------------------------------------------
                    Distance matrix (angstroms):
                    1          2          3
     1  O    0.000000
     2  S    1.647473   0.000000
     3  O    2.755347   1.649886   0.000000
 Symmetry turned off by external request.
 Stoichiometry    O2S
 Framework group  CS[SG(O2S)]
 Deg. of freedom     3
 Full point group                 CS      NOp   2
 Rotational constants (GHZ):          38.5352954           8.3236200           6.8450828
 Standard basis: 6-31G(d) (6D, 7F)
    49 basis functions,   108 primitive gaussians,    49 cartesian basis functions
    16 alpha electrons       16 beta electrons
       nuclear repulsion energy        94.4599575563 Hartrees.
 NAtoms=    3 NActive=    3 NUniq=    3 SFac= 1.00D+00 NAtFMM=   60 NAOKFM=F Big=F
 Integral buffers will be    131072 words long.
 Raffenetti 2 integral format.
 Two-electron integral symmetry is turned off.
 One-electron integrals computed using PRISM.
 NBasis=    49 RedAO= T EigKep=  1.40D-02  NBF=    49
 NBsUse=    49 1.00D-06 EigRej= -1.00D+00 NBFU=    49
 Keep R1 ints in memory in canonical form, NReq=7731660.
 Requested convergence on RMS density matrix=1.00D-08 within 128 cycles.
 Requested convergence on MAX density matrix=1.00D-06.
 Requested convergence on             energy=1.00D-06.
 No special actions if energy rises.
 SCF Done:  E(RB3LYP) =  -548.534247082     A.U. after    1 cycles
            NFock=  1  Conv=0.20D+01     -V/T= 2.0060
 Calling FoFJK, ICntrl=      2127 FMM=F ISym2X=0 I1Cent= 0 IOpClX= 0 NMat=1 NMatS=1 NMatT=0.
 -------------------------------------------------------------------
 Center     Atomic                   Forces (Hartrees/Bohr)
 Number     Number              X              Y              Z
 -------------------------------------------------------------------
      1        8           0.053356737    0.049532654    0.000000000
      2       16           0.035200972   -0.087702912   -0.000000000
      3        8          -0.088557709    0.038170259    0.000000000
 -------------------------------------------------------------------
 Cartesian Forces:  Max     0.088557709 RMS     0.051132476
 TRJ-TRJ-TRJ-TRJ-TRJ-TRJ-TRJ-TRJ-TRJ-TRJ-TRJ-TRJ-TRJ-TRJ-TRJ-TRJ-TRJ-TRJ

 ADMP step      2
 Frobenius norm of [F,P] =     6.978460D-02
 Current gradient on entry to l121
 I=    1 X=  -5.335673709356D-02 Y=  -4.953265381510D-02 Z=   0.000000000000D+00
 I=    2 X=  -3.520097219198D-02 Y=   8.770291244639D-02 Z=   0.000000000000D+00
 I=    3 X=   8.855770928557D-02 Y=  -3.817025863131D-02 Z=   0.000000000000D+00

 Summary information for step      2
 Time (fs)     0.200000
 EKinC      =      0.1035628; EKinPA =      0.0000687; EKinPB =      0.0000687
 EKin       =      0.1037002; EPot   =   -548.5342471; ETot   =   -548.4305469
 ETot-EKinP =   -548.4306843
 Adiabaticity Index =    1.2419D-04
 Integrand for the Velocity-Velocity Auto-Correlation  Function =   1.908258118719D-01
 Angular momentum
   JX = -0.1845830193D-29  JY =  0.3860315021D-29  JZ = -0.3456062433D-13
 Jtot =  0.3456062433D-13 H-BAR;  J (Quantum Number) =  0.0000000000D+00
 Total energy  -5.484305469D+02  Delta-E   1.888465D-05 A.U.
 Total angular momentum   3.456062D-14  Delta-A   2.023809D-14 h-bar
 Tr(PA)-NA = -1.776D-15
 Tr(PA**2-PA) = -3.496D-11
 Tr[(PA**2-PA)**2] =  3.742D-13
 Cartesian coordinates:
 I=    1 X=  -2.434729025854D+00 Y=  -1.254840442478D+00 Z=   0.000000000000D+00
 I=    2 X=  -1.362390872720D-01 Y=   8.450187264119D-01 Z=   0.000000000000D+00
 I=    3 X=   2.707055948395D+00 Y=  -4.342588744770D-01 Z=   0.000000000000D+00
 MW Cartesian velocity:
 I=    1 X=   1.695180980223D+14 Y=   2.222700362151D+14 Z=   0.000000000000D+00
 I=    2 X=   8.731188209990D+12 Y=  -2.536258486554D+14 Z=   0.000000000000D+00
 I=    3 X=  -1.818624352210D+14 Y=   1.363115133755D+14 Z=   0.000000000000D+00
 TRJ-TRJ-TRJ-TRJ-TRJ-TRJ-TRJ-TRJ-TRJ-TRJ-TRJ-TRJ-TRJ-TRJ-TRJ-TRJ-TRJ-TRJ
                          Input orientation:                          
 ---------------------------------------------------------------------
 Center     Atomic      Atomic             Coordinates (Angstroms)
 Number     Number       Type             X           Y           Z
 ---------------------------------------------------------------------
      1          8           0       -1.286152   -0.661084    0.000000
      2         16           0       -0.072010    0.444784   -0.000000
      3          8           0        1.430092   -0.227990   -0.000000
 ---------------------------------------------------------------------
                    Distance matrix (angstroms):
                    1          2          3
     1  O    0.000000
     2  S    1.642281   0.000000
     3  O    2.750555   1.645885   0.000000
 Symmetry turned off by external request.
 Stoichiometry    O2S
 Framework group  CS[SG(O2S)]
 Deg. of freedom     3
 Full point group                 CS      NOp   2
 Rotational constants (GHZ):          38.9407723           8.3526434           6.8774560
 Standard basis: 6-31G(d) (6D, 7F)
    49 basis functions,   108 primitive gaussians,    49 cartesian basis functions
    16 alpha electrons       16 beta electrons
       nuclear repulsion energy        94.7111544954 Hartrees.
 NAtoms=    3 NActive=    3 NUniq=    3 SFac= 1.00D+00 NAtFMM=   60 NAOKFM=F Big=F
 Integral buffers will be    131072 words long.
 Raffenetti 2 integral format.
 Two-electron integral symmetry is turned off.
 One-electron integrals computed using PRISM.
 NBasis=    49 RedAO= T EigKep=  1.39D-02  NBF=    49
 NBsUse=    49 1.00D-06 EigRej= -1.00D+00 NBFU=    49
 Keep R1 ints in memory in canonical form, NReq=7731660.
 Requested convergence on RMS density matrix=1.00D-08 within 128 cycles.
 Requested convergence on MAX density matrix=1.00D-06.
 Requested convergence on             energy=1.00D-06.
 No special actions if energy rises.
 SCF Done:  E(RB3LYP) =  -548.535988550     A.U. after    1 cycles
            NFock=  1  Conv=0.20D+01     -V/T= 2.0060
 Calling FoFJK, ICntrl=      2127 FMM=F ISym2X=0 I1Cent= 0 IOpClX= 0 NMat=1 NMatS=1 NMatT=0.
 -------------------------------------------------------------------
 Center     Atomic                   Forces (Hartrees/Bohr)
 Number     Number              X              Y              Z
 -------------------------------------------------------------------
      1        8           0.044439273    0.039297157    0.000000000
      2       16           0.037436611   -0.071563991   -0.000000000
      3        8          -0.081875884    0.032266834   -0.000000000
 -------------------------------------------------------------------
 Cartesian Forces:  Max     0.081875884 RMS     0.044455757
 TRJ-TRJ-TRJ-TRJ-TRJ-TRJ-TRJ-TRJ-TRJ-TRJ-TRJ-TRJ-TRJ-TRJ-TRJ-TRJ-TRJ-TRJ

 ADMP step      3
 Frobenius norm of [F,P] =     7.962777D-02
 Current gradient on entry to l121
 I=    1 X=  -4.443927342335D-02 Y=  -3.929715653338D-02 Z=   0.000000000000D+00
 I=    2 X=  -3.743661090944D-02 Y=   7.156399051257D-02 Z=   0.000000000000D+00
 I=    3 X=   8.187588433281D-02 Y=  -3.226683397918D-02 Z=   0.000000000000D+00

 Summary information for step      3
 Time (fs)     0.300000
 EKinC      =      0.1048918; EKinPA =      0.0002809; EKinPB =      0.0002809
 EKin       =      0.1054535; EPot   =   -548.5359885; ETot   =   -548.4305350
 ETot-EKinP =   -548.4310967
 Adiabaticity Index =    6.0927D-04
 Integrand for the Velocity-Velocity Auto-Correlation  Function =   1.920435455464D-01
 Angular momentum
   JX = -0.8776474572D-30  JY =  0.2194636682D-29  JZ = -0.3257552572D-13
 Jtot =  0.3257552572D-13 H-BAR;  J (Quantum Number) =  0.0000000000D+00
 Total energy  -5.484305350D+02  Delta-E   1.185258D-05 A.U.
 Total angular momentum   3.257553D-14  Delta-A  -1.985099D-15 h-bar
 Tr(PA)-NA = -1.776D-15
 Tr(PA**2-PA) = -6.861D-11
 Tr[(PA**2-PA)**2] =  7.346D-13
 Cartesian coordinates:
 I=    1 X=  -2.430474640689D+00 Y=  -1.249268598787D+00 Z=   0.000000000000D+00
 I=    2 X=  -1.360795814209D-01 Y=   8.405203839408D-01 Z=   0.000000000000D+00
 I=    3 X=   2.702482728611D+00 Y=  -4.308390272649D-01 Z=   0.000000000000D+00
 MW Cartesian velocity:
 I=    1 X=   1.706764717368D+14 Y=   2.232805412200D+14 Z=   0.000000000000D+00
 I=    2 X=   9.323559635892D+12 Y=  -2.549478841585D+14 Z=   0.000000000000D+00
 I=    3 X=  -1.838583160940D+14 Y=   1.371701299203D+14 Z=   0.000000000000D+00
 TRJ-TRJ-TRJ-TRJ-TRJ-TRJ-TRJ-TRJ-TRJ-TRJ-TRJ-TRJ-TRJ-TRJ-TRJ-TRJ-TRJ-TRJ
                          Input orientation:                          
 ---------------------------------------------------------------------
 Center     Atomic      Atomic             Coordinates (Angstroms)
 Number     Number       Type             X           Y           Z
 ---------------------------------------------------------------------
      1          8           0       -1.283886   -0.658124    0.000000
      2         16           0       -0.071920    0.442393   -0.000000
      3          8           0        1.427647   -0.226170   -0.000000
 ---------------------------------------------------------------------
                    Distance matrix (angstroms):
                    1          2          3
     1  O    0.000000
     2  S    1.637071   0.000000
     3  O    2.745724   1.641852   0.000000
 Symmetry turned off by external request.
 Stoichiometry    O2S
 Framework group  CS[SG(O2S)]
 Deg. of freedom     3
 Full point group                 CS      NOp   2
 Rotational constants (GHZ):          39.3547972           8.3820542           6.9102598
 Standard basis: 6-31G(d) (6D, 7F)
    49 basis functions,   108 primitive gaussians,    49 cartesian basis functions
    16 alpha electrons       16 beta electrons
       nuclear repulsion energy        94.9651749644 Hartrees.
 NAtoms=    3 NActive=    3 NUniq=    3 SFac= 1.00D+00 NAtFMM=   60 NAOKFM=F Big=F
 Integral buffers will be    131072 words long.
 Raffenetti 2 integral format.
 Two-electron integral symmetry is turned off.
 One-electron integrals computed using PRISM.
 NBasis=    49 RedAO= T EigKep=  1.39D-02  NBF=    49
 NBsUse=    49 1.00D-06 EigRej= -1.00D+00 NBFU=    49
 Keep R1 ints in memory in canonical form, NReq=7731660.
 Requested convergence on RMS density matrix=1.00D-08 within 128 cycles.
 Requested convergence on MAX density matrix=1.00D-06.
 Requested convergence on             energy=1.00D-06.
 No special actions if energy rises.
 SCF Done:  E(RB3LYP) =  -548.537950492     A.U. after    1 cycles
            NFock=  1  Conv=0.20D+01     -V/T= 2.0059
 Calling FoFJK, ICntrl=      2127 FMM=F ISym2X=0 I1Cent= 0 IOpClX= 0 NMat=1 NMatS=1 NMatT=0.
 -------------------------------------------------------------------
 Center     Atomic                   Forces (Hartrees/Bohr)
 Number     Number              X              Y              Z
 -------------------------------------------------------------------
      1        8           0.043205569    0.037442515   -0.000000000
      2       16           0.036110414   -0.066839772    0.000000000
      3        8          -0.079315983    0.029397256   -0.000000000
 -------------------------------------------------------------------
 Cartesian Forces:  Max     0.079315983 RMS     0.042420388
 TRJ-TRJ-TRJ-TRJ-TRJ-TRJ-TRJ-TRJ-TRJ-TRJ-TRJ-TRJ-TRJ-TRJ-TRJ-TRJ-TRJ-TRJ

 ADMP step      4
 Frobenius norm of [F,P] =     7.244874D-02
 Current gradient on entry to l121
 I=    1 X=  -4.320556862043D-02 Y=  -3.744251525398D-02 Z=   0.000000000000D+00
 I=    2 X=  -3.611041402828D-02 Y=   6.683977164922D-02 Z=   0.000000000000D+00
 I=    3 X=   7.931598264870D-02 Y=  -2.939725639521D-02 Z=   0.000000000000D+00

 Summary information for step      4
 Time (fs)     0.400000
 EKinC      =      0.1060910; EKinPA =      0.0006606; EKinPB =      0.0006606
 EKin       =      0.1074122; EPot   =   -548.5379505; ETot   =   -548.4305383
 ETot-EKinP =   -548.4318595
 Adiabaticity Index =    1.2801D-03
 Integrand for the Velocity-Velocity Auto-Correlation  Function =   1.931341778999D-01
 Angular momentum
   JX = -0.1273266670D-29  JY =  0.3086172593D-29  JZ = -0.1709150602D-13
 Jtot =  0.1709150602D-13 H-BAR;  J (Quantum Number) =  0.0000000000D+00
 Total energy  -5.484305383D+02  Delta-E  -3.286342D-06 A.U.
 Total angular momentum   1.709151D-14  Delta-A  -1.548402D-14 h-bar
 Tr(PA)-NA =  0.000D+00
 Tr(PA**2-PA) =  3.319D-11
 Tr[(PA**2-PA)**2] =  3.557D-13
 Cartesian coordinates:
 I=    1 X=  -2.426193845770D+00 Y=  -1.243674640835D+00 Z=   0.000000000000D+00
 I=    2 X=  -1.359093057190D-01 Y=   8.360010215369D-01 Z=   0.000000000000D+00
 I=    3 X=   2.697861571327D+00 Y=  -4.273992777844D-01 Z=   0.000000000000D+00
 MW Cartesian velocity:
 I=    1 X=   1.717204470160D+14 Y=   2.241375174748D+14 Z=   0.000000000000D+00
 I=    2 X=   9.919732366870D+12 Y=  -2.560975614965D+14 Z=   0.000000000000D+00
 I=    3 X=  -1.857451728967D+14 Y=   1.379385916230D+14 Z=   0.000000000000D+00
 TRJ-TRJ-TRJ-TRJ-TRJ-TRJ-TRJ-TRJ-TRJ-TRJ-TRJ-TRJ-TRJ-TRJ-TRJ-TRJ-TRJ-TRJ
                          Input orientation:                          
 ---------------------------------------------------------------------
 Center     Atomic      Atomic             Coordinates (Angstroms)
 Number     Number       Type             X           Y           Z
 ---------------------------------------------------------------------
      1          8           0       -1.281608   -0.655153    0.000000
      2         16           0       -0.071825    0.439991   -0.000000
      3          8           0        1.425177   -0.224340   -0.000000
 ---------------------------------------------------------------------
                    Distance matrix (angstroms):
                    1          2          3
     1  O    0.000000
     2  S    1.631844   0.000000
     3  O    2.740854   1.637788   0.000000
 Symmetry turned off by external request.
 Stoichiometry    O2S
 Framework group  CS[SG(O2S)]
 Deg. of freedom     3
 Full point group                 CS      NOp   2
 Rotational constants (GHZ):          39.7774729           8.4118505           6.9434915
 Standard basis: 6-31G(d) (6D, 7F)
    49 basis functions,   108 primitive gaussians,    49 cartesian basis functions
    16 alpha electrons       16 beta electrons
       nuclear repulsion energy        95.2219788524 Hartrees.
 NAtoms=    3 NActive=    3 NUniq=    3 SFac= 1.00D+00 NAtFMM=   60 NAOKFM=F Big=F
 Integral buffers will be    131072 words long.
 Raffenetti 2 integral format.
 Two-electron integral symmetry is turned off.
 One-electron integrals computed using PRISM.
 NBasis=    49 RedAO= T EigKep=  1.39D-02  NBF=    49
 NBsUse=    49 1.00D-06 EigRej= -1.00D+00 NBFU=    49
 Keep R1 ints in memory in canonical form, NReq=7731660.
 Requested convergence on RMS density matrix=1.00D-08 within 128 cycles.
 Requested convergence on MAX density matrix=1.00D-06.
 Requested convergence on             energy=1.00D-06.
 No special actions if energy rises.
 SCF Done:  E(RB3LYP) =  -548.540097111     A.U. after    1 cycles
            NFock=  1  Conv=0.20D+01     -V/T= 2.0059
 Calling FoFJK, ICntrl=      2127 FMM=F ISym2X=0 I1Cent= 0 IOpClX= 0 NMat=1 NMatS=1 NMatT=0.
 -------------------------------------------------------------------
 Center     Atomic                   Forces (Hartrees/Bohr)
 Number     Number              X              Y              Z
 -------------------------------------------------------------------
      1        8           0.048950705    0.043184910   -0.000000000
      2       16           0.031764529   -0.072657186    0.000000000
      3        8          -0.080715234    0.029472276   -0.000000000
 -------------------------------------------------------------------
 Cartesian Forces:  Max     0.080715234 RMS     0.044637707
 TRJ-TRJ-TRJ-TRJ-TRJ-TRJ-TRJ-TRJ-TRJ-TRJ-TRJ-TRJ-TRJ-TRJ-TRJ-TRJ-TRJ-TRJ

 ADMP step      5
 Frobenius norm of [F,P] =     6.076603D-02
 Current gradient on entry to l121
 I=    1 X=  -4.895070508583D-02 Y=  -4.318490968738D-02 Z=   0.000000000000D+00
 I=    2 X=  -3.176452907823D-02 Y=   7.265718550545D-02 Z=   0.000000000000D+00
 I=    3 X=   8.071523416408D-02 Y=  -2.947227581806D-02 Z=   0.000000000000D+00

 Summary information for step      5
 Time (fs)     0.500000
 EKinC      =      0.1073133; EKinPA =      0.0011175; EKinPB =      0.0011175
 EKin       =      0.1095482; EPot   =   -548.5400971; ETot   =   -548.4305489
 ETot-EKinP =   -548.4327838
 Adiabaticity Index =    1.7038D-03
 Integrand for the Velocity-Velocity Auto-Correlation  Function =   1.942385708140D-01
 Angular momentum
   JX =  0.9595198708D-30  JY = -0.4376427862D-29  JZ = -0.4624322055D-13
 Jtot =  0.4624322055D-13 H-BAR;  J (Quantum Number) =  0.0000000000D+00
 Total energy  -5.484305489D+02  Delta-E  -1.055549D-05 A.U.
 Total angular momentum   4.624322D-14  Delta-A   2.915171D-14 h-bar
 Tr(PA)-NA = -1.776D-15
 Tr(PA**2-PA) =  4.558D-11
 Tr[(PA**2-PA)**2] =  4.886D-13
 Cartesian coordinates:
 I=    1 X=  -2.421887253543D+00 Y=  -1.238059941520D+00 Z=   0.000000000000D+00
 I=    2 X=  -1.357287127749D-01 Y=   8.314620140845D-01 Z=   0.000000000000D+00
 I=    3 X=   2.693193993706D+00 Y=  -4.239410013796D-01 Z=   0.000000000000D+00
 MW Cartesian velocity:
 I=    1 X=   1.728214151515D+14 Y=   2.250294204305D+14 Z=   0.000000000000D+00
 I=    2 X=   1.046554001023D+13 Y=  -2.572568552572D+14 Z=   0.000000000000D+00
 I=    3 X=  -1.876178153373D+14 Y=   1.386857225250D+14 Z=   0.000000000000D+00
 TRJ-TRJ-TRJ-TRJ-TRJ-TRJ-TRJ-TRJ-TRJ-TRJ-TRJ-TRJ-TRJ-TRJ-TRJ-TRJ-TRJ-TRJ
                          Input orientation:                          
 ---------------------------------------------------------------------
 Center     Atomic      Atomic             Coordinates (Angstroms)
 Number     Number       Type             X           Y           Z
 ---------------------------------------------------------------------
      1          8           0       -1.279313   -0.652169    0.000000
      2         16           0       -0.071724    0.437578   -0.000000
      3          8           0        1.422682   -0.222500    0.000000
 ---------------------------------------------------------------------
                    Distance matrix (angstroms):
                    1          2          3
     1  O    0.000000
     2  S    1.626597   0.000000
     3  O    2.735945   1.633693   0.000000
 Symmetry turned off by external request.
 Stoichiometry    O2S
 Framework group  CS[SG(O2S)]
 Deg. of freedom     3
 Full point group                 CS      NOp   2
 Rotational constants (GHZ):          40.2091818           8.4420524           6.9771718
 Standard basis: 6-31G(d) (6D, 7F)
    49 basis functions,   108 primitive gaussians,    49 cartesian basis functions
    16 alpha electrons       16 beta electrons
       nuclear repulsion energy        95.4817037900 Hartrees.
 NAtoms=    3 NActive=    3 NUniq=    3 SFac= 1.00D+00 NAtFMM=   60 NAOKFM=F Big=F
 Integral buffers will be    131072 words long.
 Raffenetti 2 integral format.
 Two-electron integral symmetry is turned off.
 One-electron integrals computed using PRISM.
 NBasis=    49 RedAO= T EigKep=  1.39D-02  NBF=    49
 NBsUse=    49 1.00D-06 EigRej= -1.00D+00 NBFU=    49
 Keep R1 ints in memory in canonical form, NReq=7731660.
 Requested convergence on RMS density matrix=1.00D-08 within 128 cycles.
 Requested convergence on MAX density matrix=1.00D-06.
 Requested convergence on             energy=1.00D-06.
 No special actions if energy rises.
 SCF Done:  E(RB3LYP) =  -548.542281519     A.U. after    1 cycles
            NFock=  1  Conv=0.20D+01     -V/T= 2.0059
 Calling FoFJK, ICntrl=      2127 FMM=F ISym2X=0 I1Cent= 0 IOpClX= 0 NMat=1 NMatS=1 NMatT=0.
 -------------------------------------------------------------------
 Center     Atomic                   Forces (Hartrees/Bohr)
 Number     Number              X              Y              Z
 -------------------------------------------------------------------
      1        8           0.059273179    0.053919852   -0.000000000
      2       16           0.025777929   -0.085726699    0.000000000
      3        8          -0.085051108    0.031806847   -0.000000000
 -------------------------------------------------------------------
 Cartesian Forces:  Max     0.085726699 RMS     0.050199154
 TRJ-TRJ-TRJ-TRJ-TRJ-TRJ-TRJ-TRJ-TRJ-TRJ-TRJ-TRJ-TRJ-TRJ-TRJ-TRJ-TRJ-TRJ

 ADMP step      6
 Frobenius norm of [F,P] =     5.887328D-02
 Current gradient on entry to l121
 I=    1 X=  -5.927317922195D-02 Y=  -5.391985199265D-02 Z=   0.000000000000D+00
 I=    2 X=  -2.577792923008D-02 Y=   8.572669879537D-02 Z=   0.000000000000D+00
 I=    3 X=   8.505110845200D-02 Y=  -3.180684680274D-02 Z=   0.000000000000D+00

 Summary information for step      6
 Time (fs)     0.600000
 EKinC      =      0.1086852; EKinPA =      0.0015207; EKinPB =      0.0015207
 EKin       =      0.1117266; EPot   =   -548.5422815; ETot   =   -548.4305549
 ETot-EKinP =   -548.4335963
 Adiabaticity Index =    1.6347D-03
 Integrand for the Velocity-Velocity Auto-Correlation  Function =   1.954706620006D-01
 Angular momentum
   JX =  0.3554958693D-29  JY = -0.1069054355D-28  JZ = -0.3395944982D-13
 Jtot =  0.3395944982D-13 H-BAR;  J (Quantum Number) =  0.0000000000D+00
 Total energy  -5.484305549D+02  Delta-E  -6.033261D-06 A.U.
 Total angular momentum   3.395945D-14  Delta-A  -1.228377D-14 h-bar
 Tr(PA)-NA = -5.329D-15
 Tr(PA**2-PA) =  5.762D-11
 Tr[(PA**2-PA)**2] =  6.172D-13
 Cartesian coordinates:
 I=    1 X=  -2.417551401467D+00 Y=  -1.232421381332D+00 Z=   0.000000000000D+00
 I=    2 X=  -1.355391314322D-01 Y=   8.269016465590D-01 Z=   0.000000000000D+00
 I=    3 X=   2.688479189417D+00 Y=  -4.204638894160D-01 Z=   0.000000000000D+00
 MW Cartesian velocity:
 I=    1 X=   1.741139995390D+14 Y=   2.261059110711D+14 Z=   0.000000000000D+00
 I=    2 X=   1.092303226679D+13 Y=  -2.585731808775D+14 Z=   0.000000000000D+00
 I=    3 X=  -1.895572118820D+14 Y=   1.394702806820D+14 Z=   0.000000000000D+00
 TRJ-TRJ-TRJ-TRJ-TRJ-TRJ-TRJ-TRJ-TRJ-TRJ-TRJ-TRJ-TRJ-TRJ-TRJ-TRJ-TRJ-TRJ
                          Input orientation:                          
 ---------------------------------------------------------------------
 Center     Atomic      Atomic             Coordinates (Angstroms)
 Number     Number       Type             X           Y           Z
 ---------------------------------------------------------------------
      1          8           0       -1.277000   -0.649170   -0.000000
      2         16           0       -0.071620    0.435151   -0.000000
      3          8           0        1.420161   -0.220649    0.000000
 ---------------------------------------------------------------------
                    Distance matrix (angstroms):
                    1          2          3
     1  O    0.000000
     2  S    1.621324   0.000000
     3  O    2.730990   1.629565   0.000000
 Symmetry turned off by external request.
 Stoichiometry    O2S
 Framework group  CS[SG(O2S)]
 Deg. of freedom     3
 Full point group                 CS      NOp   2
 Rotational constants (GHZ):          40.6505222           8.4726953           7.0113382
 Standard basis: 6-31G(d) (6D, 7F)
    49 basis functions,   108 primitive gaussians,    49 cartesian basis functions
    16 alpha electrons       16 beta electrons
       nuclear repulsion energy        95.7446135751 Hartrees.
 NAtoms=    3 NActive=    3 NUniq=    3 SFac= 1.00D+00 NAtFMM=   60 NAOKFM=F Big=F
 Integral buffers will be    131072 words long.
 Raffenetti 2 integral format.
 Two-electron integral symmetry is turned off.
 One-electron integrals computed using PRISM.
 NBasis=    49 RedAO= T EigKep=  1.38D-02  NBF=    49
 NBsUse=    49 1.00D-06 EigRej= -1.00D+00 NBFU=    49
 Keep R1 ints in memory in canonical form, NReq=7731660.
 Requested convergence on RMS density matrix=1.00D-08 within 128 cycles.
 Requested convergence on MAX density matrix=1.00D-06.
 Requested convergence on             energy=1.00D-06.
 No special actions if energy rises.
 SCF Done:  E(RB3LYP) =  -548.544419629     A.U. after    1 cycles
            NFock=  1  Conv=0.20D+01     -V/T= 2.0059
 Calling FoFJK, ICntrl=      2127 FMM=F ISym2X=0 I1Cent= 0 IOpClX= 0 NMat=1 NMatS=1 NMatT=0.
 -------------------------------------------------------------------
 Center     Atomic                   Forces (Hartrees/Bohr)
 Number     Number              X              Y              Z
 -------------------------------------------------------------------
      1        8           0.070907067    0.066107443   -0.000000000
      2       16           0.019886624   -0.101475291    0.000000000
      3        8          -0.090793691    0.035367848   -0.000000000
 -------------------------------------------------------------------
 Cartesian Forces:  Max     0.101475291 RMS     0.057334397
 TRJ-TRJ-TRJ-TRJ-TRJ-TRJ-TRJ-TRJ-TRJ-TRJ-TRJ-TRJ-TRJ-TRJ-TRJ-TRJ-TRJ-TRJ

 ADMP step      7
 Frobenius norm of [F,P] =     6.234196D-02
 Current gradient on entry to l121
 I=    1 X=  -7.090706695210D-02 Y=  -6.610744262123D-02 Z=   0.000000000000D+00
 I=    2 X=  -1.988662398327D-02 Y=   1.014752911012D-01 Z=   0.000000000000D+00
 I=    3 X=   9.079369093540D-02 Y=  -3.536784848002D-02 Z=   0.000000000000D+00

 Summary information for step      7
 Time (fs)     0.700000
 EKinC      =      0.1102797; EKinPA =      0.0017929; EKinPB =      0.0017929
 EKin       =      0.1138655; EPot   =   -548.5444196; ETot   =   -548.4305541
 ETot-EKinP =   -548.4341399
 Adiabaticity Index =    1.2260D-03
 Integrand for the Velocity-Velocity Auto-Correlation  Function =   1.968934872980D-01
 Angular momentum
   JX =  0.2079431120D-29  JY = -0.4582129757D-29  JZ =  0.2455256392D-14
 Jtot =  0.2455256392D-14 H-BAR;  J (Quantum Number) =  0.0000000000D+00
 Total energy  -5.484305541D+02  Delta-E   8.188218D-07 A.U.
 Total angular momentum   2.455256D-15  Delta-A  -3.150419D-14 h-bar
 Tr(PA)-NA = -1.776D-15
 Tr(PA**2-PA) =  6.277D-11
 Tr[(PA**2-PA)**2] =  6.731D-13
 Cartesian coordinates:
 I=    1 X=  -2.413180169748D+00 Y=  -1.226752848929D+00 Z=   0.000000000000D+00
 I=    2 X=  -1.353423566314D-01 Y=   8.223160796460D-01 Z=   0.000000000000D+00
 I=    3 X=   2.683714626555D+00 Y=  -4.169663788678D-01 Z=   0.000000000000D+00
 MW Cartesian velocity:
 I=    1 X=   1.756659597088D+14 Y=   2.274457570705D+14 Z=   0.000000000000D+00
 I=    2 X=   1.128043398706D+13 Y=  -2.601287084933D+14 Z=   0.000000000000D+00
 I=    3 X=  -1.916144741073D+14 Y=   1.403296722836D+14 Z=   0.000000000000D+00
 TRJ-TRJ-TRJ-TRJ-TRJ-TRJ-TRJ-TRJ-TRJ-TRJ-TRJ-TRJ-TRJ-TRJ-TRJ-TRJ-TRJ-TRJ
                          Input orientation:                          
 ---------------------------------------------------------------------
 Center     Atomic      Atomic             Coordinates (Angstroms)
 Number     Number       Type             X           Y           Z
 ---------------------------------------------------------------------
      1          8           0       -1.274664   -0.646150   -0.000000
      2         16           0       -0.071513    0.432709   -0.000000
      3          8           0        1.417611   -0.218786    0.000000
 ---------------------------------------------------------------------
                    Distance matrix (angstroms):
                    1          2          3
     1  O    0.000000
     2  S    1.616017   0.000000
     3  O    2.725984   1.625404   0.000000
 Symmetry turned off by external request.
 Stoichiometry    O2S
 Framework group  CS[SG(O2S)]
 Deg. of freedom     3
 Full point group                 CS      NOp   2
 Rotational constants (GHZ):          41.1022028           8.5038209           7.0460348
 Standard basis: 6-31G(d) (6D, 7F)
    49 basis functions,   108 primitive gaussians,    49 cartesian basis functions
    16 alpha electrons       16 beta electrons
       nuclear repulsion energy        96.0110226857 Hartrees.
 NAtoms=    3 NActive=    3 NUniq=    3 SFac= 1.00D+00 NAtFMM=   60 NAOKFM=F Big=F
 Integral buffers will be    131072 words long.
 Raffenetti 2 integral format.
 Two-electron integral symmetry is turned off.
 One-electron integrals computed using PRISM.
 NBasis=    49 RedAO= T EigKep=  1.38D-02  NBF=    49
 NBsUse=    49 1.00D-06 EigRej= -1.00D+00 NBFU=    49
 Keep R1 ints in memory in canonical form, NReq=7731660.
 Requested convergence on RMS density matrix=1.00D-08 within 128 cycles.
 Requested convergence on MAX density matrix=1.00D-06.
 Requested convergence on             energy=1.00D-06.
 No special actions if energy rises.
 SCF Done:  E(RB3LYP) =  -548.546528346     A.U. after    1 cycles
            NFock=  1  Conv=0.20D+01     -V/T= 2.0058
 Calling FoFJK, ICntrl=      2127 FMM=F ISym2X=0 I1Cent= 0 IOpClX= 0 NMat=1 NMatS=1 NMatT=0.
 -------------------------------------------------------------------
 Center     Atomic                   Forces (Hartrees/Bohr)
 Number     Number              X              Y              Z
 -------------------------------------------------------------------
      1        8           0.080742485    0.076357008   -0.000000000
      2       16           0.015619293   -0.115444371    0.000000000
      3        8          -0.096361778    0.039087363   -0.000000000
 -------------------------------------------------------------------
 Cartesian Forces:  Max     0.115444371 RMS     0.063887506
 TRJ-TRJ-TRJ-TRJ-TRJ-TRJ-TRJ-TRJ-TRJ-TRJ-TRJ-TRJ-TRJ-TRJ-TRJ-TRJ-TRJ-TRJ

 ADMP step      8
 Frobenius norm of [F,P] =     5.887744D-02
 Current gradient on entry to l121
 I=    1 X=  -8.074248531511D-02 Y=  -7.635700846664D-02 Z=   0.000000000000D+00
 I=    2 X=  -1.561929252426D-02 Y=   1.154443713644D-01 Z=   0.000000000000D+00
 I=    3 X=   9.636177783937D-02 Y=  -3.908736289778D-02 Z=   0.000000000000D+00

 Summary information for step      8
 Time (fs)     0.800000
 EKinC      =      0.1121066; EKinPA =      0.0019346; EKinPB =      0.0019346
 EKin       =      0.1159757; EPot   =   -548.5465283; ETot   =   -548.4305526
 ETot-EKinP =   -548.4344218
 Adiabaticity Index =    8.1068D-04
 Integrand for the Velocity-Velocity Auto-Correlation  Function =   1.985116076683D-01
 Angular momentum
   JX =  0.3087536732D-29  JY = -0.7199902654D-29  JZ = -0.4316582109D-14
 Jtot =  0.4316582109D-14 H-BAR;  J (Quantum Number) =  0.0000000000D+00
 Total energy  -5.484305526D+02  Delta-E   1.480722D-06 A.U.
 Total angular momentum   4.316582D-15  Delta-A   1.861326D-15 h-bar
 Tr(PA)-NA = -8.882D-15
 Tr(PA**2-PA) =  4.695D-11
 Tr[(PA**2-PA)**2] =  5.032D-13
 Cartesian coordinates:
 I=    1 X=  -2.408766707329D+00 Y=  -1.221047285792D+00 Z=   0.000000000000D+00
 I=    2 X=  -1.351401337120D-01 Y=   8.177006918994D-01 Z=   0.000000000000D+00
 I=    3 X=   2.678896942804D+00 Y=  -4.134462904939D-01 Z=   0.000000000000D+00
 MW Cartesian velocity:
 I=    1 X=   1.774698645573D+14 Y=   2.290476892781D+14 Z=   0.000000000000D+00
 I=    2 X=   1.155340357803D+13 Y=  -2.619306668088D+14 Z=   0.000000000000D+00
 I=    3 X=  -1.938043090945D+14 Y=   1.412753865737D+14 Z=   0.000000000000D+00
 TRJ-TRJ-TRJ-TRJ-TRJ-TRJ-TRJ-TRJ-TRJ-TRJ-TRJ-TRJ-TRJ-TRJ-TRJ-TRJ-TRJ-TRJ
                          Input orientation:                          
 ---------------------------------------------------------------------
 Center     Atomic      Atomic             Coordinates (Angstroms)
 Number     Number       Type             X           Y           Z
 ---------------------------------------------------------------------
      1          8           0       -1.272304   -0.643108   -0.000000
      2         16           0       -0.071404    0.430248    0.000000
      3          8           0        1.415032   -0.216911    0.000000
 ---------------------------------------------------------------------
                    Distance matrix (angstroms):
                    1          2          3
     1  O    0.000000
     2  S    1.610669   0.000000
     3  O    2.720922   1.621205   0.000000
 Symmetry turned off by external request.
 Stoichiometry    O2S
 Framework group  CS[SG(O2S)]
 Deg. of freedom     3
 Full point group                 CS      NOp   2
 Rotational constants (GHZ):          41.5649276           8.5354671           7.0813029
 Standard basis: 6-31G(d) (6D, 7F)
    49 basis functions,   108 primitive gaussians,    49 cartesian basis functions
    16 alpha electrons       16 beta electrons
       nuclear repulsion energy        96.2812202372 Hartrees.
 NAtoms=    3 NActive=    3 NUniq=    3 SFac= 1.00D+00 NAtFMM=   60 NAOKFM=F Big=F
 Integral buffers will be    131072 words long.
 Raffenetti 2 integral format.
 Two-electron integral symmetry is turned off.
 One-electron integrals computed using PRISM.
 NBasis=    49 RedAO= T EigKep=  1.38D-02  NBF=    49
 NBsUse=    49 1.00D-06 EigRej= -1.00D+00 NBFU=    49
 Keep R1 ints in memory in canonical form, NReq=7731660.
 Requested convergence on RMS density matrix=1.00D-08 within 128 cycles.
 Requested convergence on MAX density matrix=1.00D-06.
 Requested convergence on             energy=1.00D-06.
 No special actions if energy rises.
 SCF Done:  E(RB3LYP) =  -548.548637782     A.U. after    1 cycles
            NFock=  1  Conv=0.20D+01     -V/T= 2.0058
 Calling FoFJK, ICntrl=      2127 FMM=F ISym2X=0 I1Cent= 0 IOpClX= 0 NMat=1 NMatS=1 NMatT=0.
 -------------------------------------------------------------------
 Center     Atomic                   Forces (Hartrees/Bohr)
 Number     Number              X              Y              Z
 -------------------------------------------------------------------
      1        8           0.086689364    0.082355718   -0.000000000
      2       16           0.013844894   -0.124495994    0.000000000
      3        8          -0.100534258    0.042140276   -0.000000000
 -------------------------------------------------------------------
 Cartesian Forces:  Max     0.124495994 RMS     0.068208328
 TRJ-TRJ-TRJ-TRJ-TRJ-TRJ-TRJ-TRJ-TRJ-TRJ-TRJ-TRJ-TRJ-TRJ-TRJ-TRJ-TRJ-TRJ

 ADMP step      9
 Frobenius norm of [F,P] =     5.009276D-02
 Current gradient on entry to l121
 I=    1 X=  -8.668936438202D-02 Y=  -8.235571829847D-02 Z=   0.000000000000D+00
 I=    2 X=  -1.384489368365D-02 Y=   1.244959942855D-01 Z=   0.000000000000D+00
 I=    3 X=   1.005342580657D-01 Y=  -4.214027598709D-02 Z=   0.000000000000D+00

 Summary information for step      9
 Time (fs)     0.900000
 EKinC      =      0.1141205; EKinPA =      0.0019814; EKinPB =      0.0019814
 EKin       =      0.1180832; EPot   =   -548.5486378; ETot   =   -548.4305546
 ETot-EKinP =   -548.4345173
 Adiabaticity Index =    5.6464D-04
 Integrand for the Velocity-Velocity Auto-Correlation  Function =   2.002804355281D-01
 Angular momentum
   JX =  0.6969656067D-29  JY = -0.1590466666D-28  JZ = -0.3407536359D-13
 Jtot =  0.3407536359D-13 H-BAR;  J (Quantum Number) =  0.0000000000D+00
 Total energy  -5.484305546D+02  Delta-E  -1.963817D-06 A.U.
 Total angular momentum   3.407536D-14  Delta-A   2.975878D-14 h-bar
 Tr(PA)-NA = -3.553D-15
 Tr(PA**2-PA) = -8.011D-11
 Tr[(PA**2-PA)**2] =  8.585D-13
 Cartesian coordinates:
 I=    1 X=  -2.404305266031D+00 Y=  -1.215298644047D+00 Z=   0.000000000000D+00
 I=    2 X=  -1.349337037645D-01 Y=   8.130513883198D-01 Z=   0.000000000000D+00
 I=    3 X=   2.674022870788D+00 Y=  -4.099014867149D-01 Z=   0.000000000000D+00
 MW Cartesian velocity:
 I=    1 X=   1.794569522689D+14 Y=   2.308445981447D+14 Z=   0.000000000000D+00
 I=    2 X=   1.177778005651D+13 Y=  -2.639232506148D+14 Z=   0.000000000000D+00
 I=    3 X=  -1.961086249821D+14 Y=   1.422956345254D+14 Z=   0.000000000000D+00
 TRJ-TRJ-TRJ-TRJ-TRJ-TRJ-TRJ-TRJ-TRJ-TRJ-TRJ-TRJ-TRJ-TRJ-TRJ-TRJ-TRJ-TRJ
                          Input orientation:                          
 ---------------------------------------------------------------------
 Center     Atomic      Atomic             Coordinates (Angstroms)
 Number     Number       Type             X           Y           Z
 ---------------------------------------------------------------------
      1          8           0       -1.269915   -0.640042   -0.000000
      2         16           0       -0.071293    0.427769    0.000000
      3          8           0        1.412422   -0.215021    0.000000
 ---------------------------------------------------------------------
                    Distance matrix (angstroms):
                    1          2          3
     1  O    0.000000
     2  S    1.605277   0.000000
     3  O    2.715801   1.616968   0.000000
 Symmetry turned off by external request.
 Stoichiometry    O2S
 Framework group  CS[SG(O2S)]
 Deg. of freedom     3
 Full point group                 CS      NOp   2
 Rotational constants (GHZ):          42.0393051           8.5676614           7.1171729
 Standard basis: 6-31G(d) (6D, 7F)
    49 basis functions,   108 primitive gaussians,    49 cartesian basis functions
    16 alpha electrons       16 beta electrons
       nuclear repulsion energy        96.5554144125 Hartrees.
 NAtoms=    3 NActive=    3 NUniq=    3 SFac= 1.00D+00 NAtFMM=   60 NAOKFM=F Big=F
 Integral buffers will be    131072 words long.
 Raffenetti 2 integral format.
 Two-electron integral symmetry is turned off.
 One-electron integrals computed using PRISM.
 NBasis=    49 RedAO= T EigKep=  1.38D-02  NBF=    49
 NBsUse=    49 1.00D-06 EigRej= -1.00D+00 NBFU=    49
 Keep R1 ints in memory in canonical form, NReq=7731660.
 Requested convergence on RMS density matrix=1.00D-08 within 128 cycles.
 Requested convergence on MAX density matrix=1.00D-06.
 Requested convergence on             energy=1.00D-06.
 No special actions if energy rises.
 SCF Done:  E(RB3LYP) =  -548.550730037     A.U. after    1 cycles
            NFock=  1  Conv=0.20D+01     -V/T= 2.0058
 Calling FoFJK, ICntrl=      2127 FMM=F ISym2X=0 I1Cent= 0 IOpClX= 0 NMat=1 NMatS=1 NMatT=0.
 -------------------------------------------------------------------
 Center     Atomic                   Forces (Hartrees/Bohr)
 Number     Number              X              Y              Z
 -------------------------------------------------------------------
      1        8           0.088128494    0.083372619   -0.000000000
      2       16           0.014568885   -0.127478843    0.000000000
      3        8          -0.102697379    0.044106225   -0.000000000
 -------------------------------------------------------------------
 Cartesian Forces:  Max     0.127478843 RMS     0.069660162
 TRJ-TRJ-TRJ-TRJ-TRJ-TRJ-TRJ-TRJ-TRJ-TRJ-TRJ-TRJ-TRJ-TRJ-TRJ-TRJ-TRJ-TRJ

 ADMP step     10
 Frobenius norm of [F,P] =     5.157920D-02
 Current gradient on entry to l121
 I=    1 X=  -8.812849409875D-02 Y=  -8.337261863512D-02 Z=   0.000000000000D+00
 I=    2 X=  -1.456888504101D-02 Y=   1.274788431988D-01 Z=   0.000000000000D+00
 I=    3 X=   1.026973791398D-01 Y=  -4.410622456375D-02 Z=   0.000000000000D+00

 Summary information for step     10
 Time (fs)     1.000000
 EKinC      =      0.1162433; EKinPA =      0.0019647; EKinPB =      0.0019647
 EKin       =      0.1201728; EPot   =   -548.5507300; ETot   =   -548.4305573
 ETot-EKinP =   -548.4344867
 Adiabaticity Index =    4.3519D-04
 Integrand for the Velocity-Velocity Auto-Correlation  Function =   2.021276939869D-01
 Angular momentum
   JX =  0.8149201669D-29  JY = -0.1704885189D-28  JZ = -0.5887176661D-13
 Jtot =  0.5887176661D-13 H-BAR;  J (Quantum Number) =  0.0000000000D+00
 Total energy  -5.484305573D+02  Delta-E  -2.694202D-06 A.U.
 Total angular momentum   5.887177D-14  Delta-A   2.479640D-14 h-bar
 Tr(PA)-NA = -1.776D-15
 Tr(PA**2-PA) =  5.081D-11
 Tr[(PA**2-PA)**2] =  5.445D-13
 Cartesian coordinates:
 I=    1 X=  -2.399792433433D+00 Y=  -1.209503221185D+00 Z=   0.000000000000D+00
 I=    2 X=  -1.347235444746D-01 Y=   8.083655213348D-01 Z=   0.000000000000D+00
 I=    3 X=   2.669089952929D+00 Y=  -4.063303778347D-01 Z=   0.000000000000D+00
 MW Cartesian velocity:
 I=    1 X=   1.815265370367D+14 Y=   2.327341707445D+14 Z=   0.000000000000D+00
 I=    2 X=   1.199678083011D+13 Y=  -2.660150685580D+14 Z=   0.000000000000D+00
 I=    3 X=  -1.984878376413D+14 Y=   1.433635180504D+14 Z=   0.000000000000D+00
 TRJ-TRJ-TRJ-TRJ-TRJ-TRJ-TRJ-TRJ-TRJ-TRJ-TRJ-TRJ-TRJ-TRJ-TRJ-TRJ-TRJ-TRJ
                          Input orientation:                          
 ---------------------------------------------------------------------
 Center     Atomic      Atomic             Coordinates (Angstroms)
 Number     Number       Type             X           Y           Z
 ---------------------------------------------------------------------
      1          8           0       -1.267500   -0.636949   -0.000000
      2         16           0       -0.071179    0.425269    0.000000
      3          8           0        1.409779   -0.213117    0.000000
 ---------------------------------------------------------------------
                    Distance matrix (angstroms):
                    1          2          3
     1  O    0.000000
     2  S    1.599841   0.000000
     3  O    2.710619   1.612692   0.000000
 Symmetry turned off by external request.
 Stoichiometry    O2S
 Framework group  CS[SG(O2S)]
 Deg. of freedom     3
 Full point group                 CS      NOp   2
 Rotational constants (GHZ):          42.5258048           8.6004181           7.1536617
 Standard basis: 6-31G(d) (6D, 7F)
    49 basis functions,   108 primitive gaussians,    49 cartesian basis functions
    16 alpha electrons       16 beta electrons
       nuclear repulsion energy        96.8337097905 Hartrees.
 NAtoms=    3 NActive=    3 NUniq=    3 SFac= 1.00D+00 NAtFMM=   60 NAOKFM=F Big=F
 Integral buffers will be    131072 words long.
 Raffenetti 2 integral format.
 Two-electron integral symmetry is turned off.
 One-electron integrals computed using PRISM.
 NBasis=    49 RedAO= T EigKep=  1.37D-02  NBF=    49
 NBsUse=    49 1.00D-06 EigRej= -1.00D+00 NBFU=    49
 Keep R1 ints in memory in canonical form, NReq=7731660.
 Requested convergence on RMS density matrix=1.00D-08 within 128 cycles.
 Requested convergence on MAX density matrix=1.00D-06.
 Requested convergence on             energy=1.00D-06.
 No special actions if energy rises.
 SCF Done:  E(RB3LYP) =  -548.552775321     A.U. after    1 cycles
            NFock=  1  Conv=0.20D+01     -V/T= 2.0057
 Calling FoFJK, ICntrl=      2127 FMM=F ISym2X=0 I1Cent= 0 IOpClX= 0 NMat=1 NMatS=1 NMatT=0.
 -------------------------------------------------------------------
 Center     Atomic                   Forces (Hartrees/Bohr)
 Number     Number              X              Y              Z
 -------------------------------------------------------------------
      1        8           0.085848422    0.080223795    0.000000000
      2       16           0.017024632   -0.125205018   -0.000000000
      3        8          -0.102873053    0.044981223   -0.000000000
 -------------------------------------------------------------------
 Cartesian Forces:  Max     0.125205018 RMS     0.068619821
 TRJ-TRJ-TRJ-TRJ-TRJ-TRJ-TRJ-TRJ-TRJ-TRJ-TRJ-TRJ-TRJ-TRJ-TRJ-TRJ-TRJ-TRJ

 ADMP step     11
 Frobenius norm of [F,P] =     6.505891D-02
 Current gradient on entry to l121
 I=    1 X=  -8.584842152013D-02 Y=  -8.022379510709D-02 Z=   0.000000000000D+00
 I=    2 X=  -1.702463192526D-02 Y=   1.252050177716D-01 Z=   0.000000000000D+00
 I=    3 X=   1.028730534454D-01 Y=  -4.498122266446D-02 Z=   0.000000000000D+00

 Summary information for step     11
 Time (fs)     1.100000
 EKinC      =      0.1183915; EKinPA =      0.0019134; EKinPB =      0.0019134
 EKin       =      0.1222184; EPot   =   -548.5527753; ETot   =   -548.4305569
 ETot-EKinP =   -548.4343838
 Adiabaticity Index =    3.3055D-04
 Integrand for the Velocity-Velocity Auto-Correlation  Function =   2.039790028583D-01
 Angular momentum
   JX =  0.9135873381D-29  JY = -0.1861652554D-28  JZ = -0.7906484428D-13
 Jtot =  0.7906484428D-13 H-BAR;  J (Quantum Number) =  0.0000000000D+00
 Total energy  -5.484305569D+02  Delta-E   3.290494D-07 A.U.
 Total angular momentum   7.906484D-14  Delta-A   2.019308D-14 h-bar
 Tr(PA)-NA =  0.000D+00
 Tr(PA**2-PA) = -5.038D-11
 Tr[(PA**2-PA)**2] =  5.406D-13
 Cartesian coordinates:
 I=    1 X=  -2.395227496448D+00 Y=  -1.203660085792D+00 Z=   0.000000000000D+00
 I=    2 X=  -1.345093682995D-01 Y=   8.036422285283D-01 Z=   0.000000000000D+00
 I=    3 X=   2.664096901371D+00 Y=  -4.027321713922D-01 Z=   0.000000000000D+00
 MW Cartesian velocity:
 I=    1 X=   1.835800934146D+14 Y=   2.346146816876D+14 Z=   0.000000000000D+00
 I=    2 X=   1.224716334141D+13 Y=  -2.681119379711D+14 Z=   0.000000000000D+00
 I=    3 X=  -2.008953900704D+14 Y=   1.444476051064D+14 Z=   0.000000000000D+00
 TRJ-TRJ-TRJ-TRJ-TRJ-TRJ-TRJ-TRJ-TRJ-TRJ-TRJ-TRJ-TRJ-TRJ-TRJ-TRJ-TRJ-TRJ
                          Input orientation:                          
 ---------------------------------------------------------------------
 Center     Atomic      Atomic             Coordinates (Angstroms)
 Number     Number       Type             X           Y           Z
 ---------------------------------------------------------------------
      1          8           0       -1.265057   -0.633833   -0.000000
      2         16           0       -0.071063    0.422750    0.000000
      3          8           0        1.407105   -0.211198    0.000000
 ---------------------------------------------------------------------
                    Distance matrix (angstroms):
                    1          2          3
     1  O    0.000000
     2  S    1.594362   0.000000
     3  O    2.705379   1.608376   0.000000
 Symmetry turned off by external request.
 Stoichiometry    O2S
 Framework group  CS[SG(O2S)]
 Deg. of freedom     3
 Full point group                 CS      NOp   2
 Rotational constants (GHZ):          43.0247644           8.6337399           7.1907739
 Standard basis: 6-31G(d) (6D, 7F)
    49 basis functions,   108 primitive gaussians,    49 cartesian basis functions
    16 alpha electrons       16 beta electrons
       nuclear repulsion energy        97.1161183729 Hartrees.
 NAtoms=    3 NActive=    3 NUniq=    3 SFac= 1.00D+00 NAtFMM=   60 NAOKFM=F Big=F
 Integral buffers will be    131072 words long.
 Raffenetti 2 integral format.
 Two-electron integral symmetry is turned off.
 One-electron integrals computed using PRISM.
 NBasis=    49 RedAO= T EigKep=  1.37D-02  NBF=    49
 NBsUse=    49 1.00D-06 EigRej= -1.00D+00 NBFU=    49
 Keep R1 ints in memory in canonical form, NReq=7731660.
 Requested convergence on RMS density matrix=1.00D-08 within 128 cycles.
 Requested convergence on MAX density matrix=1.00D-06.
 Requested convergence on             energy=1.00D-06.
 No special actions if energy rises.
 SCF Done:  E(RB3LYP) =  -548.554784297     A.U. after    1 cycles
            NFock=  1  Conv=0.20D+01     -V/T= 2.0058
 Calling FoFJK, ICntrl=      2127 FMM=F ISym2X=0 I1Cent= 0 IOpClX= 0 NMat=1 NMatS=1 NMatT=0.
 -------------------------------------------------------------------
 Center     Atomic                   Forces (Hartrees/Bohr)
 Number     Number              X              Y              Z
 -------------------------------------------------------------------
      1        8           0.081533078    0.074755530    0.000000000
      2       16           0.020018324   -0.119813458   -0.000000000
      3        8          -0.101551402    0.045057928   -0.000000000
 -------------------------------------------------------------------
 Cartesian Forces:  Max     0.119813458 RMS     0.066110122
 TRJ-TRJ-TRJ-TRJ-TRJ-TRJ-TRJ-TRJ-TRJ-TRJ-TRJ-TRJ-TRJ-TRJ-TRJ-TRJ-TRJ-TRJ

 ADMP step     12
 Frobenius norm of [F,P] =     7.374084D-02
 Current gradient on entry to l121
 I=    1 X=  -8.153307768380D-02 Y=  -7.475553002724D-02 Z=   0.000000000000D+00
 I=    2 X=  -2.001832416332D-02 Y=   1.198134581650D-01 Z=   0.000000000000D+00
 I=    3 X=   1.015514018471D-01 Y=  -4.505792813779D-02 Z=   0.000000000000D+00

 Summary information for step     12
 Time (fs)     1.200000
 EKinC      =      0.1205007; EKinPA =      0.0018643; EKinPB =      0.0018643
 EKin       =      0.1242294; EPot   =   -548.5547843; ETot   =   -548.4305549
 ETot-EKinP =   -548.4342835
 Adiabaticity Index =    2.6397D-04
 Integrand for the Velocity-Velocity Auto-Correlation  Function =   2.057791265876D-01
 Angular momentum
   JX =  0.1103186302D-28  JY = -0.2282756323D-28  JZ = -0.5564155199D-13
 Jtot =  0.5564155199D-13 H-BAR;  J (Quantum Number) =  0.0000000000D+00
 Total energy  -5.484305549D+02  Delta-E   2.012433D-06 A.U.
 Total angular momentum   5.564155D-14  Delta-A  -2.342329D-14 h-bar
 Tr(PA)-NA = -3.553D-15
 Tr(PA**2-PA) = -9.237D-11
 Tr[(PA**2-PA)**2] =  9.908D-13
 Cartesian coordinates:
 I=    1 X=  -2.390611969710D+00 Y=  -1.197770622437D+00 Z=   0.000000000000D+00
 I=    2 X=  -1.342903527855D-01 Y=   7.988821936419D-01 Z=   0.000000000000D+00
 I=    3 X=   2.659043586755D+00 Y=  -3.991068495431D-01 Z=   0.000000000000D+00
 MW Cartesian velocity:
 I=    1 X=   1.855486643984D+14 Y=   2.364141251020D+14 Z=   0.000000000000D+00
 I=    2 X=   1.254894992741D+13 Y=  -2.701442196379D+14 Z=   0.000000000000D+00
 I=    3 X=  -2.032906332654D+14 Y=   1.455214441794D+14 Z=   0.000000000000D+00
 TRJ-TRJ-TRJ-TRJ-TRJ-TRJ-TRJ-TRJ-TRJ-TRJ-TRJ-TRJ-TRJ-TRJ-TRJ-TRJ-TRJ-TRJ
                          Input orientation:                          
 ---------------------------------------------------------------------
 Center     Atomic      Atomic             Coordinates (Angstroms)
 Number     Number       Type             X           Y           Z
 ---------------------------------------------------------------------
      1          8           0       -1.262590   -0.630693   -0.000000
      2         16           0       -0.070944    0.420213    0.000000
      3          8           0        1.404400   -0.209266    0.000000
 ---------------------------------------------------------------------
                    Distance matrix (angstroms):
                    1          2          3
     1  O    0.000000
     2  S    1.588843   0.000000
     3  O    2.700080   1.604021   0.000000
 Symmetry turned off by external request.
 Stoichiometry    O2S
 Framework group  CS[SG(O2S)]
 Deg. of freedom     3
 Full point group                 CS      NOp   2
 Rotational constants (GHZ):          43.5364395           8.6676221           7.2285066
 Standard basis: 6-31G(d) (6D, 7F)
    49 basis functions,   108 primitive gaussians,    49 cartesian basis functions
    16 alpha electrons       16 beta electrons
       nuclear repulsion energy        97.4025943146 Hartrees.
 NAtoms=    3 NActive=    3 NUniq=    3 SFac= 1.00D+00 NAtFMM=   60 NAOKFM=F Big=F
 Integral buffers will be    131072 words long.
 Raffenetti 2 integral format.
 Two-electron integral symmetry is turned off.
 One-electron integrals computed using PRISM.
 NBasis=    49 RedAO= T EigKep=  1.37D-02  NBF=    49
 NBsUse=    49 1.00D-06 EigRej= -1.00D+00 NBFU=    49
 Keep R1 ints in memory in canonical form, NReq=7731660.
 Requested convergence on RMS density matrix=1.00D-08 within 128 cycles.
 Requested convergence on MAX density matrix=1.00D-06.
 Requested convergence on             energy=1.00D-06.
 No special actions if energy rises.
 SCF Done:  E(RB3LYP) =  -548.556788352     A.U. after    1 cycles
            NFock=  1  Conv=0.20D+01     -V/T= 2.0058
 Calling FoFJK, ICntrl=      2127 FMM=F ISym2X=0 I1Cent= 0 IOpClX= 0 NMat=1 NMatS=1 NMatT=0.
 -------------------------------------------------------------------
 Center     Atomic                   Forces (Hartrees/Bohr)
 Number     Number              X              Y              Z
 -------------------------------------------------------------------
      1        8           0.077007230    0.069053074    0.000000000
      2       16           0.022408840   -0.113789947   -0.000000000
      3        8          -0.099416070    0.044736874   -0.000000000
 -------------------------------------------------------------------
 Cartesian Forces:  Max     0.113789947 RMS     0.063275141
 TRJ-TRJ-TRJ-TRJ-TRJ-TRJ-TRJ-TRJ-TRJ-TRJ-TRJ-TRJ-TRJ-TRJ-TRJ-TRJ-TRJ-TRJ

 ADMP step     13
 Frobenius norm of [F,P] =     6.908078D-02
 Current gradient on entry to l121
 I=    1 X=  -7.700723029779D-02 Y=  -6.905307357111D-02 Z=   0.000000000000D+00
 I=    2 X=  -2.240883974194D-02 Y=   1.137899470857D-01 Z=   0.000000000000D+00
 I=    3 X=   9.941607003977D-02 Y=  -4.473687351460D-02 Z=   0.000000000000D+00

 Summary information for step     13
 Time (fs)     1.300000
 EKinC      =      0.1225395; EKinPA =      0.0018468; EKinPB =      0.0018468
 EKin       =      0.1262330; EPot   =   -548.5567884; ETot   =   -548.4305554
 ETot-EKinP =   -548.4342489
 Adiabaticity Index =    2.8548D-04
 Integrand for the Velocity-Velocity Auto-Correlation  Function =   2.075026957093D-01
 Angular momentum
   JX =  0.1095523330D-28  JY = -0.2358497310D-28  JZ = -0.7854537150D-13
 Jtot =  0.7854537150D-13 H-BAR;  J (Quantum Number) =  0.0000000000D+00
 Total energy  -5.484305554D+02  Delta-E  -4.370481D-07 A.U.
 Total angular momentum   7.854537D-14  Delta-A   2.290382D-14 h-bar
 Tr(PA)-NA =  0.000D+00
 Tr(PA**2-PA) =  5.807D-11
 Tr[(PA**2-PA)**2] =  6.226D-13
 Cartesian coordinates:
 I=    1 X=  -2.385948588530D+00 Y=  -1.191837500572D+00 Z=   0.000000000000D+00
 I=    2 X=  -1.340655021842D-01 Y=   7.940870174528D-01 Z=   0.000000000000D+00
 I=    3 X=   2.653930754000D+00 Y=  -3.954549426123D-01 Z=   0.000000000000D+00
 MW Cartesian velocity:
 I=    1 X=   1.874053793685D+14 Y=   2.381041033377D+14 Z=   0.000000000000D+00
 I=    2 X=   1.290202505179D+13 Y=  -2.720807453892D+14 Z=   0.000000000000D+00
 I=    3 X=  -2.056465332590D+14 Y=   1.465693667074D+14 Z=   0.000000000000D+00
 TRJ-TRJ-TRJ-TRJ-TRJ-TRJ-TRJ-TRJ-TRJ-TRJ-TRJ-TRJ-TRJ-TRJ-TRJ-TRJ-TRJ-TRJ
                          Input orientation:                          
 ---------------------------------------------------------------------
 Center     Atomic      Atomic             Coordinates (Angstroms)
 Number     Number       Type             X           Y           Z
 ---------------------------------------------------------------------
      1          8           0       -1.260098   -0.627532   -0.000000
      2         16           0       -0.070822    0.417658    0.000000
      3          8           0        1.401663   -0.207320    0.000000
 ---------------------------------------------------------------------
                    Distance matrix (angstroms):
                    1          2          3
     1  O    0.000000
     2  S    1.583287   0.000000
     3  O    2.694727   1.599628   0.000000
 Symmetry turned off by external request.
 Stoichiometry    O2S
 Framework group  CS[SG(O2S)]
 Deg. of freedom     3
 Full point group                 CS      NOp   2
 Rotational constants (GHZ):          44.0610682           8.7020578           7.2668546
 Standard basis: 6-31G(d) (6D, 7F)
    49 basis functions,   108 primitive gaussians,    49 cartesian basis functions
    16 alpha electrons       16 beta electrons
       nuclear repulsion energy        97.6930758950 Hartrees.
 NAtoms=    3 NActive=    3 NUniq=    3 SFac= 1.00D+00 NAtFMM=   60 NAOKFM=F Big=F
 Integral buffers will be    131072 words long.
 Raffenetti 2 integral format.
 Two-electron integral symmetry is turned off.
 One-electron integrals computed using PRISM.
 NBasis=    49 RedAO= T EigKep=  1.37D-02  NBF=    49
 NBsUse=    49 1.00D-06 EigRej= -1.00D+00 NBFU=    49
 Keep R1 ints in memory in canonical form, NReq=7731660.
 Requested convergence on RMS density matrix=1.00D-08 within 128 cycles.
 Requested convergence on MAX density matrix=1.00D-06.
 Requested convergence on             energy=1.00D-06.
 No special actions if energy rises.
 SCF Done:  E(RB3LYP) =  -548.558780102     A.U. after    1 cycles
            NFock=  1  Conv=0.20D+01     -V/T= 2.0059
 Calling FoFJK, ICntrl=      2127 FMM=F ISym2X=0 I1Cent= 0 IOpClX= 0 NMat=1 NMatS=1 NMatT=0.
 -------------------------------------------------------------------
 Center     Atomic                   Forces (Hartrees/Bohr)
 Number     Number              X              Y              Z
 -------------------------------------------------------------------
      1        8           0.073527494    0.064670662    0.000000000
      2       16           0.023550558   -0.109018329   -0.000000000
      3        8          -0.097078052    0.044347667   -0.000000000
 -------------------------------------------------------------------
 Cartesian Forces:  Max     0.109018329 RMS     0.060936283
 TRJ-TRJ-TRJ-TRJ-TRJ-TRJ-TRJ-TRJ-TRJ-TRJ-TRJ-TRJ-TRJ-TRJ-TRJ-TRJ-TRJ-TRJ

 ADMP step     14
 Frobenius norm of [F,P] =     5.604007D-02
 Current gradient on entry to l121
 I=    1 X=  -7.352749413471D-02 Y=  -6.467066235324D-02 Z=   0.000000000000D+00
 I=    2 X=  -2.355055799386D-02 Y=   1.090183290155D-01 Z=   0.000000000000D+00
 I=    3 X=   9.707805212855D-02 Y=  -4.434766666224D-02 Z=   0.000000000000D+00

 Summary information for step     14
 Time (fs)     1.400000
 EKinC      =      0.1245085; EKinPA =      0.0018564; EKinPB =      0.0018564
 EKin       =      0.1282214; EPot   =   -548.5587801; ETot   =   -548.4305587
 ETot-EKinP =   -548.4342716
 Adiabaticity Index =    3.5086D-04
 Integrand for the Velocity-Velocity Auto-Correlation  Function =   2.091524336714D-01
 Angular momentum
   JX =  0.1089766451D-28  JY = -0.2264824319D-28  JZ = -0.5456352954D-13
 Jtot =  0.5456352954D-13 H-BAR;  J (Quantum Number) =  0.0000000000D+00
 Total energy  -5.484305587D+02  Delta-E  -3.378430D-06 A.U.
 Total angular momentum   5.456353D-14  Delta-A  -2.398184D-14 h-bar
 Tr(PA)-NA =  0.000D+00
 Tr(PA**2-PA) =  7.697D-11
 Tr[(PA**2-PA)**2] =  8.259D-13
 Cartesian coordinates:
 I=    1 X=  -2.381240211287D+00 Y=  -1.185863524873D+00 Z=   0.000000000000D+00
 I=    2 X=  -1.338339981286D-01 Y=   7.892584861450D-01 Z=   0.000000000000D+00
 I=    3 X=   2.648759625661D+00 Y=  -3.917772163082D-01 Z=   0.000000000000D+00
 MW Cartesian velocity:
 I=    1 X=   1.891606551394D+14 Y=   2.396958266558D+14 Z=   0.000000000000D+00
 I=    2 X=   1.329051488761D+13 Y=  -2.739267333629D+14 Z=   0.000000000000D+00
 I=    3 X=  -2.079510641159D+14 Y=   1.475875399422D+14 Z=   0.000000000000D+00
 TRJ-TRJ-TRJ-TRJ-TRJ-TRJ-TRJ-TRJ-TRJ-TRJ-TRJ-TRJ-TRJ-TRJ-TRJ-TRJ-TRJ-TRJ
                          Input orientation:                          
 ---------------------------------------------------------------------
 Center     Atomic      Atomic             Coordinates (Angstroms)
 Number     Number       Type             X           Y           Z
 ---------------------------------------------------------------------
      1          8           0       -1.257584   -0.624350   -0.000000
      2         16           0       -0.070696    0.415086    0.000000
      3          8           0        1.398897   -0.205360    0.000000
 ---------------------------------------------------------------------
                    Distance matrix (angstroms):
                    1          2          3
     1  O    0.000000
     2  S    1.577698   0.000000
     3  O    2.689320   1.595197   0.000000
 Symmetry turned off by external request.
 Stoichiometry    O2S
 Framework group  CS[SG(O2S)]
 Deg. of freedom     3
 Full point group                 CS      NOp   2
 Rotational constants (GHZ):          44.5989279           8.7370423           7.3058148
 Standard basis: 6-31G(d) (6D, 7F)
    49 basis functions,   108 primitive gaussians,    49 cartesian basis functions
    16 alpha electrons       16 beta electrons
       nuclear repulsion energy        97.9875182236 Hartrees.
[...]
 I=    1 X=   8.061298521304D-02 Y=   8.005022547677D-02 Z=   0.000000000000D+00
 I=    2 X=  -5.209651078096D-02 Y=  -1.053797695019D-01 Z=   0.000000000000D+00
 I=    3 X=  -2.851647443211D-02 Y=   2.532954402507D-02 Z=   0.000000000000D+00
 DVelV2: Constraint failed to achieve ||WP+PW-W|| = 0
         ICType= 10 MaxIt=  30 Ademp= 8.32D-10 Conv= 1.00D-12

 Summary information for step     49
 Time (fs)     4.900000
 EKinC      =      0.1405941; EKinPA =      0.0020328; EKinPB =      0.0020328
 EKin       =      0.1446597; EPot   =   -548.5752176; ETot   =   -548.4305579
 ETot-EKinP =   -548.4346235
 Adiabaticity Index =   -2.1742D-04
 Integrand for the Velocity-Velocity Auto-Correlation  Function =   2.214110204237D-01
 Angular momentum
   JX =  0.2186590299D-28  JY = -0.7628167627D-28  JZ = -0.8667828097D-13
 Jtot =  0.8667828097D-13 H-BAR;  J (Quantum Number) =  0.0000000000D+00
 Total energy  -5.484305579D+02  Delta-E   2.698550D-06 A.U.
 Total angular momentum   8.667828D-14  Delta-A   2.408216D-14 h-bar
 Tr(PA)-NA = -2.578D-08
 Tr(PA**2-PA) =  1.611D-08
 Tr[(PA**2-PA)**2] =  4.388D-10
 Cartesian coordinates:
 I=    1 X=  -2.203839278867D+00 Y=  -9.657861839972D-01 Z=   0.000000000000D+00
 I=    2 X=  -1.199285659654D-01 Y=   6.098333957639D-01 Z=   0.000000000000D+00
 I=    3 X=   2.443563266661D+00 Y=  -2.532035733250D-01 Z=   0.000000000000D+00
 MW Cartesian velocity:
 I=    1 X=   1.949645672613D+14 Y=   2.425482165008D+14 Z=   0.000000000000D+00
 I=    2 X=   3.446640564194D+13 Y=  -2.842868333308D+14 Z=   0.000000000000D+00
 I=    3 X=  -2.436938951647D+14 Y=   1.593824769375D+14 Z=   0.000000000000D+00
 DVelV1: Constraint failed to achieve idempotency:
         ICType= 10 MaxIt=  30 Ademp= 9.25D-11 Conv= 1.00D-12
 TRJ-TRJ-TRJ-TRJ-TRJ-TRJ-TRJ-TRJ-TRJ-TRJ-TRJ-TRJ-TRJ-TRJ-TRJ-TRJ-TRJ-TRJ
                          Input orientation:                          
 ---------------------------------------------------------------------
 Center     Atomic      Atomic             Coordinates (Angstroms)
 Number     Number       Type             X           Y           Z
 ---------------------------------------------------------------------
      1          8           0       -1.163654   -0.507875   -0.000000
      2         16           0       -0.063137    0.320058    0.000000
      3          8           0        1.289858   -0.131885    0.000000
 ---------------------------------------------------------------------
                    Distance matrix (angstroms):
                    1          2          3
     1  O    0.000000
     2  S    1.377175   0.000000
     3  O    2.482155   1.426481   0.000000
 Symmetry turned off by external request.
 Stoichiometry    O2S
 Framework group  CS[SG(O2S)]
 Deg. of freedom     3
 Full point group                 CS      NOp   2
 Rotational constants (GHZ):          74.4423399          10.2537063           9.0123438
 Standard basis: 6-31G(d) (6D, 7F)
    49 basis functions,   108 primitive gaussians,    49 cartesian basis functions
    16 alpha electrons       16 beta electrons
       nuclear repulsion energy       110.3118913638 Hartrees.
 NAtoms=    3 NActive=    3 NUniq=    3 SFac= 1.00D+00 NAtFMM=   60 NAOKFM=F Big=F
 Integral buffers will be    131072 words long.
 Raffenetti 2 integral format.
 Two-electron integral symmetry is turned off.
 One-electron integrals computed using PRISM.
 NBasis=    49 RedAO= T EigKep=  1.17D-02  NBF=    49
 NBsUse=    49 1.00D-06 EigRej= -1.00D+00 NBFU=    49
 Keep R1 ints in memory in canonical form, NReq=7731660.
 Requested convergence on RMS density matrix=1.00D-08 within 128 cycles.
 Requested convergence on MAX density matrix=1.00D-06.
 Requested convergence on             energy=1.00D-06.
 No special actions if energy rises.
 SCF Done:  E(RB3LYP) =  -548.573415108     A.U. after    1 cycles
            NFock=  1  Conv=0.20D+01     -V/T= 2.0041
 Calling FoFJK, ICntrl=      2127 FMM=F ISym2X=0 I1Cent= 0 IOpClX= 0 NMat=1 NMatS=1 NMatT=0.
 -------------------------------------------------------------------
 Center     Atomic                   Forces (Hartrees/Bohr)
 Number     Number              X              Y              Z
 -------------------------------------------------------------------
      1        8          -0.092392245   -0.088471586    0.000000000
      2       16           0.054083028    0.118938023   -0.000000000
      3        8           0.038309217   -0.030466437   -0.000000000
 -------------------------------------------------------------------
 Cartesian Forces:  Max     0.118938023 RMS     0.063096553
 TRJ-TRJ-TRJ-TRJ-TRJ-TRJ-TRJ-TRJ-TRJ-TRJ-TRJ-TRJ-TRJ-TRJ-TRJ-TRJ-TRJ-TRJ

 ADMP step     50
 Frobenius norm of [F,P] =     7.531349D-02
 Current gradient on entry to l121
 I=    1 X=   9.239224506183D-02 Y=   8.847158596289D-02 Z=   0.000000000000D+00
 I=    2 X=  -5.408302770481D-02 Y=  -1.189380229158D-01 Z=   0.000000000000D+00
 I=    3 X=  -3.830921735702D-02 Y=   3.046643695294D-02 Z=   0.000000000000D+00
 DVelV2: Constraint failed to achieve ||WP+PW-W|| = 0
         ICType= 10 MaxIt=  30 Ademp= 1.11D-08 Conv= 1.00D-12

 Summary information for step     50
 Time (fs)     5.000000
 EKinC      =      0.1388221; EKinPA =      0.0020161; EKinPB =      0.0020161
 EKin       =      0.1428543; EPot   =   -548.5734151; ETot   =   -548.4305608
 ETot-EKinP =   -548.4345930
 Adiabaticity Index =   -2.8864D-05
 Integrand for the Velocity-Velocity Auto-Correlation  Function =   2.199565576562D-01
 Angular momentum
   JX =  0.2352685665D-28  JY = -0.8077106039D-28  JZ = -0.9472400376D-13
 Jtot =  0.9472400376D-13 H-BAR;  J (Quantum Number) =  0.0000000000D+00
 Total energy  -5.484305608D+02  Delta-E  -2.861177D-06 A.U.
 Total angular momentum   9.472400D-14  Delta-A   8.045723D-15 h-bar
 Tr(PA)-NA = -4.179D-09
 Tr(PA**2-PA) =  2.607D-09
 Tr[(PA**2-PA)**2] =  7.107D-11
 Cartesian coordinates:
 I=    1 X=  -2.198988006997D+00 Y=  -9.597450047300D-01 Z=   0.000000000000D+00
 I=    2 X=  -1.193113806383D-01 Y=   6.048211229388D-01 Z=   0.000000000000D+00
 I=    3 X=   2.437478309333D+00 Y=  -2.492257715438D-01 Z=   0.000000000000D+00
 MW Cartesian velocity:
 I=    1 X=   1.929412918167D+14 Y=   2.405591951512D+14 Z=   0.000000000000D+00
 I=    2 X=   3.534323156597D+13 Y=  -2.824277554074D+14 Z=   0.000000000000D+00
 I=    3 X=  -2.429102946200D+14 Y=   1.587430948884D+14 Z=   0.000000000000D+00


 Final analysis for traj   1
 Traj calculation does not meet the product criterion.


 Analysis of fragment    1

 Instantaneous rotational analysis:
 Q(CM): X=  0.204435395187D-16 Y=  0.337943816449D-17 Z=  0.121079028081D-49
 V(CM): X= -0.175165863652D-01 Y= -0.373388961044D-01 Z=  0.421717542933D-17
 Angular momentum in principle axes
   JX = -0.8332561837D-28  JY = -0.9472400376D-13  JZ =  0.1158958600D-28
 Jtot =  0.9472400376D-13  H-BAR;  J (Quantum Number) =  0.0000000000D+00
 Angular momentum in original axes
   JX =  0.2352685665D-28  JY = -0.8077106039D-28  JZ = -0.9472400376D-13
 Jtot =  0.9472400376D-13  H-BAR;  J (Quantum Number) =  0.0000000000D+00

 Etrn =  0.6842865673D-31 Erot =  0.1229002636D-31 Evib(kin) =  0.1388220814D+00 au
 Epot = -0.5484305608D+03 Etot = -0.5482917387D+03 au

 Trajectory summary for trajectory      1
 Energy/Fock evaluations               51
 Gradient evaluations                  51

 Trajectory summary
   Time (fs)   Kinetic (au)   Potent (au)   Delta E (au)     Delta A (h-bar)
     0.000000     0.1000000  -548.5305738     0.0000000     0.0000000000000000
     0.100000     0.1019725  -548.5325383     0.0000081     0.0000000000000126
     0.200000     0.1037002  -548.5342471     0.0000270     0.0000000000000328
     0.300000     0.1054535  -548.5359885     0.0000388     0.0000000000000309
     0.400000     0.1074122  -548.5379505     0.0000355     0.0000000000000154
     0.500000     0.1095482  -548.5400971     0.0000250     0.0000000000000445
     0.600000     0.1117266  -548.5422815     0.0000189     0.0000000000000322
     0.700000     0.1138655  -548.5444196     0.0000198     0.0000000000000007
     0.800000     0.1159757  -548.5465283     0.0000212     0.0000000000000026
     0.900000     0.1180832  -548.5486378     0.0000193     0.0000000000000324
     1.000000     0.1201728  -548.5507300     0.0000166     0.0000000000000572
     1.100000     0.1222184  -548.5527753     0.0000169     0.0000000000000773
     1.200000     0.1242294  -548.5547843     0.0000189     0.0000000000000539
     1.300000     0.1262330  -548.5567884     0.0000185     0.0000000000000768
     1.400000     0.1282214  -548.5587801     0.0000151     0.0000000000000528
     1.500000     0.1301457  -548.5607067     0.0000129     0.0000000000000706
     1.600000     0.1319709  -548.5625299     0.0000149     0.0000000000000606
     1.700000     0.1337171  -548.5642719     0.0000190     0.0000000000000718
     1.800000     0.1354338  -548.5659868     0.0000209     0.0000000000000518
     1.900000     0.1371418  -548.5676965     0.0000191     0.0000000000001127
     2.000000     0.1388135  -548.5693709     0.0000165     0.0000000000000964
     2.100000     0.1404119  -548.5709694     0.0000163     0.0000000000000688
     2.200000     0.1419332  -548.5724888     0.0000183     0.0000000000000967
     2.300000     0.1434049  -548.5739591     0.0000196     0.0000000000000816
     2.400000     0.1448453  -548.5754011     0.0000181     0.0000000000000390
     2.500000     0.1462344  -548.5767936     0.0000147     0.0000000000000499
     2.600000     0.1475266  -548.5780881     0.0000123     0.0000000000000728
     2.700000     0.1486914  -548.5792524     0.0000128     0.0000000000000954
     2.800000     0.1497394  -548.5802981     0.0000151     0.0000000000000778
     2.900000     0.1507070  -548.5812646     0.0000162     0.0000000000000659
     3.000000     0.1516158  -548.5821751     0.0000146     0.0000000000001076
     3.100000     0.1524484  -548.5830109     0.0000113     0.0000000000000304
     3.200000     0.1531642  -548.5837289     0.0000091    -0.0000000000000002
     3.300000     0.1537360  -548.5843004     0.0000094     0.0000000000000383
     3.400000     0.1541692  -548.5847316     0.0000115     0.0000000000000105
     3.500000     0.1544922  -548.5850524     0.0000137     0.0000000000000065
     3.600000     0.1547331  -548.5852922     0.0000147     0.0000000000000305
     3.700000     0.1549016  -548.5854616     0.0000139     0.0000000000000286
     3.800000     0.1549772  -548.5855403     0.0000107     0.0000000000000263
     3.900000     0.1549078  -548.5854750     0.0000066     0.0000000000000579
     4.000000     0.1546328  -548.5852018     0.0000048     0.0000000000000315
     4.100000     0.1541289  -548.5846952     0.0000076     0.0000000000000459
     4.200000     0.1534381  -548.5839993     0.0000127     0.0000000000000688
     4.300000     0.1526354  -548.5831943     0.0000149     0.0000000000000340
     4.400000     0.1517537  -548.5823163     0.0000113     0.0000000000000459
     4.500000     0.1507448  -548.5813135     0.0000052     0.0000000000000333
     4.600000     0.1495244  -548.5800954     0.0000028     0.0000000000000517
     4.700000     0.1480604  -548.5786273     0.0000068     0.0000000000000645
     4.800000     0.1464087  -548.5769693     0.0000132     0.0000000000000609
     4.900000     0.1446597  -548.5752176     0.0000159     0.0000000000000850
     5.000000     0.1428543  -548.5734151     0.0000131     0.0000000000000930
                             Max Error =      0.0000388     0.0000000000001127

 Density conservation (alpha)
    Time (fs)      Electron #     Av. Idempot     RMS Idempot
     0.000000 -0.000000000000  0.000000000000  0.000000000000
     0.100000  0.000000000000  0.000000000000  0.000000000000
     0.200000 -0.000000000000 -0.000000000035  0.000000000000
     0.300000 -0.000000000000 -0.000000000069  0.000000000001
     0.400000  0.000000000000  0.000000000033  0.000000000000
     0.500000 -0.000000000000  0.000000000046  0.000000000000
     0.600000 -0.000000000000  0.000000000058  0.000000000001
     0.700000 -0.000000000000  0.000000000063  0.000000000001
     0.800000 -0.000000000000  0.000000000047  0.000000000001
     0.900000 -0.000000000000 -0.000000000080  0.000000000001
     1.000000 -0.000000000000  0.000000000051  0.000000000001
     1.100000  0.000000000000 -0.000000000050  0.000000000001
     1.200000 -0.000000000000 -0.000000000092  0.000000000001
     1.300000  0.000000000000  0.000000000058  0.000000000001
     1.400000  0.000000000000  0.000000000077  0.000000000001
     1.500000  0.000000000000  0.000000000090  0.000000000001
     1.600000 -0.000000000000  0.000000000089  0.000000000001
     1.700000  0.000000000000  0.000000000067  0.000000000001
     1.800000  0.000000000000  0.000000000046  0.000000000000
     1.900000 -0.000000000000  0.000000000044  0.000000000000
     2.000000  0.000000000000 -0.000000000056  0.000000000001
     2.100000  0.000000000000  0.000000000051  0.000000000001
     2.200000 -0.000000000000  0.000000000084  0.000000000001
     2.300000 -0.000000000000 -0.000000000056  0.000000000001
     2.400000 -0.000000000000 -0.000000000055  0.000000000001
     2.500000 -0.000000000000 -0.000000000079  0.000000000001
     2.600000  0.000000000000 -0.000000000088  0.000000000001
     2.700000  0.000000000000 -0.000000000077  0.000000000001
     2.800000  0.000000000000  0.000000000083  0.000000000001
     2.900000  0.000000000000 -0.000000000067  0.000000000001
     3.000000  0.000000000000 -0.000000000069  0.000000000001
     3.100000 -0.000000000000  0.000000000064  0.000000000001
     3.200000 -0.000000000000 -0.000000000066  0.000000000001
     3.300000 -0.000000000000  0.000000000055  0.000000000001
     3.400000  0.000000000041 -0.000000000026  0.000000000001
     3.500000  0.000000000065 -0.000000000042  0.000000000001
     3.600000  0.000000000079 -0.000000000050  0.000000000001
     3.700000  0.000000000056 -0.000000000036  0.000000000001
     3.800000  0.000000000000 -0.000000000091  0.000000000001
     3.900000 -0.000000000211  0.000000000134  0.000000000004
     4.000000 -0.000000000425  0.000000000269  0.000000000007
     4.100000 -0.000000000572  0.000000000361  0.000000000010
     4.200000 -0.000000000526  0.000000000332  0.000000000009
     4.300000 -0.000000000263  0.000000000166  0.000000000004
     4.400000 -0.000000000078  0.000000000049  0.000000000001
     4.500000 -0.000000000900  0.000000000565  0.000000000015
     4.600000 -0.000000004400  0.000000002761  0.000000000075
     4.700000 -0.000000012050  0.000000007553  0.000000000205
     4.800000 -0.000000022192  0.000000013891  0.000000000378
     4.900000 -0.000000025783  0.000000016113  0.000000000439
     5.000000 -0.000000004179  0.000000002607  0.000000000071
 Max Error =  -0.000000025783  0.000000016113  0.000000000439
 TRJ-TRJ-TRJ-TRJ-TRJ-TRJ-TRJ-TRJ-TRJ-TRJ-TRJ-TRJ-TRJ-TRJ-TRJ-TRJ-TRJ-TRJ
                          Input orientation:                          
 ---------------------------------------------------------------------
 Center     Atomic      Atomic             Coordinates (Angstroms)
 Number     Number       Type             X           Y           Z
 ---------------------------------------------------------------------
      1          8           0       -1.163654   -0.507875   -0.000000
      2         16           0       -0.063137    0.320058    0.000000
      3          8           0        1.289858   -0.131885    0.000000
 ---------------------------------------------------------------------
                    Distance matrix (angstroms):
                    1          2          3
     1  O    0.000000
     2  S    1.377175   0.000000
     3  O    2.482155   1.426481   0.000000
 Symmetry turned off by external request.
 Stoichiometry    O2S
 Framework group  CS[SG(O2S)]
 Deg. of freedom     3
 Full point group                 CS      NOp   2
 Rotational constants (GHZ):          74.4423399          10.2537063           9.0123438

 **********************************************************************

            Population analysis using the SCF Density.

 **********************************************************************

 Alpha  occ. eigenvalues --  -89.09162 -19.22763 -19.22762  -8.13043  -6.09399
 Alpha  occ. eigenvalues --   -6.09334  -6.08988  -1.04855  -0.98120  -0.69068
 Alpha  occ. eigenvalues --   -0.47397  -0.45336  -0.44304  -0.33592  -0.33129
 Alpha  occ. eigenvalues --   -0.33127
 Alpha virt. eigenvalues --   -0.18385  -0.02884  -0.01894   0.22425   0.29734
 Alpha virt. eigenvalues --    0.30771   0.32041   0.60329   0.60986   0.62507
 Alpha virt. eigenvalues --    0.73483   0.77794   0.91316   0.94138   0.95440
 Alpha virt. eigenvalues --    0.96453   0.98255   0.99837   1.21332   1.32542
 Alpha virt. eigenvalues --    1.76497   1.76687   1.77058   1.77426   1.78648
 Alpha virt. eigenvalues --    1.87013   1.88022   1.99636   2.34370   2.49090
 Alpha virt. eigenvalues --    3.47991   3.49939   3.89376
          Condensed to atoms (all electrons):
               1          2          3
     1  O    8.107616   0.304764  -0.030343
     2  S    0.304764  14.627343   0.276066
     3  O   -0.030343   0.276066   8.164069
 Mulliken charges:
               1
     1  O   -0.382037
     2  S    0.791828
     3  O   -0.409791
 Sum of Mulliken charges =   0.00000
 Mulliken charges with hydrogens summed into heavy atoms:
               1
     1  O   -0.382037
     2  S    0.791828
     3  O   -0.409791
 Electronic spatial extent (au):  <R**2>=            151.7572
 Charge=              0.0000 electrons
 Dipole moment (field-independent basis, Debye):
    X=             -0.4680    Y=              1.2972    Z=             -0.0000  Tot=              1.3790
 Quadrupole moment (field-independent basis, Debye-Ang):
   XX=            -26.5034   YY=            -22.5166   ZZ=            -20.3783
   XY=             -0.6045   XZ=              0.0000   YZ=             -0.0000
 Traceless Quadrupole moment (field-independent basis, Debye-Ang):
   XX=             -3.3706   YY=              0.6162   ZZ=              2.7545
   XY=             -0.6045   XZ=              0.0000   YZ=             -0.0000
 Octapole moment (field-independent basis, Debye-Ang**2):
  XXX=             -1.4157  YYY=             -1.0183  ZZZ=             -0.0000  XYY=              0.4321
  XXY=              1.3319  XXZ=              0.0000  XZZ=             -0.1105  YZZ=             -0.2261
  YYZ=             -0.0000  XYZ=             -0.0000
 Hexadecapole moment (field-independent basis, Debye-Ang**3):
 XXXX=           -123.3211 YYYY=            -37.3928 ZZZZ=            -17.6449 XXXY=             -6.7442
 XXXZ=              0.0000 YYYX=             -5.9285 YYYZ=             -0.0000 ZZZX=              0.0000
 ZZZY=             -0.0000 XXYY=            -26.0457 XXZZ=            -22.1403 YYZZ=             -9.0031
 XXYZ=              0.0000 YYXZ=              0.0000 ZZXY=             -1.9433
 N-N= 1.103118913638D+02 E-N=-1.520775170669D+03  KE= 5.463347580747D+02
 Unable to Open any file for archive entry.
 1\1\GINC-SPARTAN-BM197\ADMP\RB3LYP\6-31G(d)\O2S1\AKHALILOV\19-Mar-2025
 \0\\# B3LYP/6-31G(d) ADMP int=ultrafine\\SO2 ADMP thermal decompositio
 n simulation targeting 600K\\0,1\O,-1.1636543404,-0.5078751848,0.\S,-0
 .0631368636,0.3200575549,0.\O,1.2898579734,-0.1318845987,0.\\Version=E
 S64L-G16RevC.01\HF=-548.5734151\RMSD=2.000e+00\RMSF=6.310e-02\Dipole=-
 0.184124,0.5103427,0.\Quadrupole=-2.5059885,0.4581136,2.0478749,-0.449
 4182,0.,0.\PG=CS [SG(O2S1)]\\@
 The archive entry for this job was punched.


 A MATHEMATICIAN IS A MACHINE FOR TURNING COFFEE INTO THEOREMS.
     -- QUOTED BY PAUL ERDOS
 Job cpu time:       0 days  0 hours  3 minutes 50.3 seconds.
 Elapsed time:       0 days  0 hours  1 minutes  9.6 seconds.
 File lengths (MBytes):  RWF=      6 Int=      0 D2E=      0 Chk=      1 Scr=      1
 Normal termination of Gaussian 16 at Wed Mar 19 15:15:03 2025.
