 Entering Gaussian System, Link 0=g16
 Input=CF2O_1000K_step0005.gjf
 Output=CF2O_1000K_step0005.log
 Initial command:
 /apps/easybuild-2022/easybuild/software/Compiler/NVHPC/22.11-CUDA-11.7.0/Gaussian/g16c01-CUDA-11.7.0/g16/l1.exe "/tmp/Gau-264011.inp" -scrdir="/tmp/"
 Default is to use a total of   4 processors:
                                4 via shared-memory
                                1 via Linda
 Entering Link 1 = /apps/easybuild-2022/easybuild/software/Compiler/NVHPC/22.11-CUDA-11.7.0/Gaussian/g16c01-CUDA-11.7.0/g16/l1.exe PID=    264012.
  
 Copyright (c) 1988-2019, Gaussian, Inc.  All Rights Reserved.
  
 This is part of the Gaussian(R) 16 program.  It is based on
 the Gaussian(R) 09 system (copyright 2009, Gaussian, Inc.),
 the Gaussian(R) 03 system (copyright 2003, Gaussian, Inc.),
 the Gaussian(R) 98 system (copyright 1998, Gaussian, Inc.),
 the Gaussian(R) 94 system (copyright 1995, Gaussian, Inc.),
 the Gaussian 92(TM) system (copyright 1992, Gaussian, Inc.),
 the Gaussian 90(TM) system (copyright 1990, Gaussian, Inc.),
 the Gaussian 88(TM) system (copyright 1988, Gaussian, Inc.),
 the Gaussian 86(TM) system (copyright 1986, Carnegie Mellon
 University), and the Gaussian 82(TM) system (copyright 1983,
 Carnegie Mellon University). Gaussian is a federally registered
 trademark of Gaussian, Inc.
  
 This software contains proprietary and confidential information,
 including trade secrets, belonging to Gaussian, Inc.
  
 This software is provided under written license and may be
 used, copied, transmitted, or stored only in accord with that
 written license.
  
 The following legend is applicable only to US Government
 contracts under FAR:
  
                    RESTRICTED RIGHTS LEGEND
  
 Use, reproduction and disclosure by the US Government is
 subject to restrictions as set forth in subparagraphs (a)
 and (c) of the Commercial Computer Software - Restricted
 Rights clause in FAR 52.227-19.
  
 Gaussian, Inc.
 340 Quinnipiac St., Bldg. 40, Wallingford CT 06492
  
  
 ---------------------------------------------------------------
 Warning -- This program may not be used in any manner that
 competes with the business of Gaussian, Inc. or will provide
 assistance to any competitor of Gaussian, Inc.  The licensee
 of this program is prohibited from giving any competitor of
 Gaussian, Inc. access to this program.  By using this program,
 the user acknowledges that Gaussian, Inc. is engaged in the
 business of creating and licensing software in the field of
 computational chemistry and represents and warrants to the
 licensee that it is not a competitor of Gaussian, Inc. and that
 it will not use this program in any manner prohibited above.
 ---------------------------------------------------------------
  

 Cite this work as:
 Gaussian 16, Revision C.01,
 M. J. Frisch, G. W. Trucks, H. B. Schlegel, G. E. Scuseria, 
 M. A. Robb, J. R. Cheeseman, G. Scalmani, V. Barone, 
 G. A. Petersson, H. Nakatsuji, X. Li, M. Caricato, A. V. Marenich, 
 J. Bloino, B. G. Janesko, R. Gomperts, B. Mennucci, H. P. Hratchian, 
 J. V. Ortiz, A. F. Izmaylov, J. L. Sonnenberg, D. Williams-Young, 
 F. Ding, F. Lipparini, F. Egidi, J. Goings, B. Peng, A. Petrone, 
 T. Henderson, D. Ranasinghe, V. G. Zakrzewski, J. Gao, N. Rega, 
 G. Zheng, W. Liang, M. Hada, M. Ehara, K. Toyota, R. Fukuda, 
 J. Hasegawa, M. Ishida, T. Nakajima, Y. Honda, O. Kitao, H. Nakai, 
 T. Vreven, K. Throssell, J. A. Montgomery, Jr., J. E. Peralta, 
 F. Ogliaro, M. J. Bearpark, J. J. Heyd, E. N. Brothers, K. N. Kudin, 
 V. N. Staroverov, T. A. Keith, R. Kobayashi, J. Normand, 
 K. Raghavachari, A. P. Rendell, J. C. Burant, S. S. Iyengar, 
 J. Tomasi, M. Cossi, J. M. Millam, M. Klene, C. Adamo, R. Cammi, 
 J. W. Ochterski, R. L. Martin, K. Morokuma, O. Farkas, 
 J. B. Foresman, and D. J. Fox, Gaussian, Inc., Wallingford CT, 2019.
 
 ******************************************
 Gaussian 16:  ES64L-G16RevC.01  3-Jul-2019
                20-Mar-2025 
 ******************************************
 %chk=CF2O_1000K_step0005.chk
 %mem=8GB
 %nprocshared=4
 Will use up to    4 processors via shared memory.
 -----------------------------------------
 # B3LYP/6-31G(d) pop=full density=current
 -----------------------------------------
 1/30=1,38=1,172=1/1;
 2/12=2,17=6,18=5,40=1/2;
 3/5=1,6=6,7=1,11=2,25=1,30=1,74=-5/1,2,3;
 4//1;
 5/5=2,38=5/2;
 6/7=3,22=-1,28=1/1;
 99/5=1,9=1/99;
 ----------------
 CF2O Time step 5
 ----------------
 Symbolic Z-matrix:
 Charge =  0 Multiplicity = 1
 F                     1.16612  -0.58098   0.03956 
 C                     0.01711   0.08088  -0.01824 
 O                     0.00404   1.31368  -0.08898 
 F                    -1.18033  -0.57611   0.04687 
 
                          Input orientation:                          
 ---------------------------------------------------------------------
 Center     Atomic      Atomic             Coordinates (Angstroms)
 Number     Number       Type             X           Y           Z
 ---------------------------------------------------------------------
      1          9           0        1.166121   -0.580976    0.039561
      2          6           0        0.017109    0.080884   -0.018244
      3          8           0        0.004039    1.313681   -0.088977
      4          9           0       -1.180328   -0.576112    0.046873
 ---------------------------------------------------------------------
                    Distance matrix (angstroms):
                    1          2          3          4
     1  F    0.000000
     2  C    1.327264   0.000000
     3  O    2.226361   1.234894   0.000000
     4  F    2.346465   1.367384   2.234390   0.000000
 Stoichiometry    CF2O
 Framework group  C1[X(CF2O)]
 Deg. of freedom     6
 Full point group                 C1      NOp   1
 Largest Abelian subgroup         C1      NOp   1
 Largest concise Abelian subgroup C1      NOp   1
                         Standard orientation:                         
 ---------------------------------------------------------------------
 Center     Atomic      Atomic             Coordinates (Angstroms)
 Number     Number       Type             X           Y           Z
 ---------------------------------------------------------------------
      1          9           0       -1.155882   -0.619582   -0.002763
      2          6           0       -0.017972    0.063470    0.012402
      3          8           0       -0.025119    1.298244   -0.003247
      4          9           0        1.190192   -0.576727   -0.002619
 ---------------------------------------------------------------------
 Rotational constants (GHZ):          12.4479422           9.6609155           5.4396498
 Standard basis: 6-31G(d) (6D, 7F)
 There are    60 symmetry adapted cartesian basis functions of A   symmetry.
 There are    60 symmetry adapted basis functions of A   symmetry.
    60 basis functions,   112 primitive gaussians,    60 cartesian basis functions
    16 alpha electrons       16 beta electrons
       nuclear repulsion energy       115.4292975488 Hartrees.
 NAtoms=    4 NActive=    4 NUniq=    4 SFac= 1.00D+00 NAtFMM=   60 NAOKFM=F Big=F
 Integral buffers will be    131072 words long.
 Raffenetti 2 integral format.
 Two-electron integral symmetry is turned on.
 One-electron integrals computed using PRISM.
 NBasis=    60 RedAO= T EigKep=  4.36D-03  NBF=    60
 NBsUse=    60 1.00D-06 EigRej= -1.00D+00 NBFU=    60
 ExpMin= 1.69D-01 ExpMax= 7.00D+03 ExpMxC= 1.05D+03 IAcc=3 IRadAn=         5 AccDes= 0.00D+00
 Harris functional with IExCor=  402 and IRadAn=       5 diagonalized for initial guess.
 HarFok:  IExCor=  402 AccDes= 0.00D+00 IRadAn=         5 IDoV= 1 UseB2=F ITyADJ=14
 ICtDFT=  3500011 ScaDFX=  1.000000  1.000000  1.000000  1.000000
 FoFCou: FMM=F IPFlag=           0 FMFlag=      100000 FMFlg1=           0
         NFxFlg=           0 DoJE=T BraDBF=F KetDBF=T FulRan=T
         wScrn=  0.000000 ICntrl=       500 IOpCl=  0 I1Cent=   200000004 NGrid=           0
         NMat0=    1 NMatS0=      1 NMatT0=    0 NMatD0=    1 NMtDS0=    0 NMtDT0=    0
 Petite list used in FoFCou.
 Keep R1 ints in memory in canonical form, NReq=5215649.
 Requested convergence on RMS density matrix=1.00D-08 within 128 cycles.
 Requested convergence on MAX density matrix=1.00D-06.
 Requested convergence on             energy=1.00D-06.
 No special actions if energy rises.
 Integral accuracy reduced to 1.0D-05 until final iterations.
 Initial convergence to 1.0D-05 achieved.  Increase integral accuracy.
 SCF Done:  E(RB3LYP) =  -312.991188877     A.U. after   14 cycles
            NFock= 14  Conv=0.39D-08     -V/T= 2.0084

 **********************************************************************

            Population analysis using the SCF Density.

 **********************************************************************

 Orbital symmetries:
       Occupied  (A) (A) (A) (A) (A) (A) (A) (A) (A) (A) (A) (A)
                 (A) (A) (A) (A)
       Virtual   (A) (A) (A) (A) (A) (A) (A) (A) (A) (A) (A) (A)
                 (A) (A) (A) (A) (A) (A) (A) (A) (A) (A) (A) (A)
                 (A) (A) (A) (A) (A) (A) (A) (A) (A) (A) (A) (A)
                 (A) (A) (A) (A) (A) (A) (A) (A)
 The electronic state is 1-A.
 Alpha  occ. eigenvalues --  -24.79386 -24.77787 -19.19290 -10.46132  -1.32106
 Alpha  occ. eigenvalues --   -1.26742  -1.07098  -0.69086  -0.62123  -0.56278
 Alpha  occ. eigenvalues --   -0.53644  -0.48207  -0.47462  -0.45506  -0.37945
 Alpha  occ. eigenvalues --   -0.33385
 Alpha virt. eigenvalues --   -0.04187   0.03723   0.24838   0.30519   0.46464
 Alpha virt. eigenvalues --    0.47363   0.47743   0.57523   0.83873   0.94378
 Alpha virt. eigenvalues --    0.95093   1.04113   1.09356   1.11779   1.22262
 Alpha virt. eigenvalues --    1.26484   1.27881   1.33571   1.35614   1.37043
 Alpha virt. eigenvalues --    1.58864   1.63642   1.74822   1.76125   1.77674
 Alpha virt. eigenvalues --    1.79578   1.80233   1.84332   1.89527   1.91765
 Alpha virt. eigenvalues --    1.94795   2.06912   2.11106   2.52371   2.58238
 Alpha virt. eigenvalues --    2.68771   2.73302   2.94514   3.01045   3.05233
 Alpha virt. eigenvalues --    3.73823   4.14115   4.39734   4.60517
     Molecular Orbital Coefficients:
                           1         2         3         4         5
                           O         O         O         O         O
     Eigenvalues --   -24.79386 -24.77787 -19.19290 -10.46132  -1.32106
   1 1   F  1S          0.99298   0.00004   0.00001   0.00003  -0.18587
   2        2S          0.01954   0.00030   0.00005   0.00067   0.42039
   3        2PX         0.00072   0.00003   0.00002   0.00012   0.08604
   4        2PY         0.00035   0.00003  -0.00004   0.00006   0.04643
   5        2PZ         0.00001   0.00000   0.00000   0.00000   0.00113
   6        3S          0.01554  -0.00092  -0.00008  -0.00220   0.37530
   7        3PX        -0.00037  -0.00020  -0.00006  -0.00181   0.04630
   8        3PY        -0.00018  -0.00022   0.00019  -0.00101   0.02214
   9        3PZ        -0.00000  -0.00000  -0.00001  -0.00002   0.00053
  10        4XX        -0.00842   0.00008   0.00008  -0.00045   0.02379
  11        4YY        -0.00817   0.00016  -0.00009   0.00028   0.01016
  12        4ZZ        -0.00804   0.00025   0.00005   0.00061   0.00742
  13        4XY        -0.00026  -0.00007  -0.00003  -0.00064   0.00995
  14        4XZ        -0.00001  -0.00000   0.00000  -0.00002   0.00026
  15        4YZ        -0.00000  -0.00000   0.00000  -0.00001   0.00013
  16 2   C  1S          0.00002   0.00002   0.00004   0.99301  -0.09228
  17        2S          0.00040   0.00024   0.00064   0.04605   0.17734
  18        2PX        -0.00057   0.00051   0.00001  -0.00023  -0.04473
  19        2PY        -0.00032  -0.00027   0.00001  -0.00151  -0.06037
  20        2PZ        -0.00001  -0.00001  -0.00000  -0.00002  -0.00177
  21        3S         -0.00047  -0.00038  -0.00310  -0.00337   0.03179
  22        3PX         0.00081  -0.00079   0.00000  -0.00020   0.00325
  23        3PY         0.00045   0.00039  -0.00222  -0.00003  -0.00057
  24        3PZ         0.00000   0.00000   0.00003  -0.00002   0.00049
  25        4XX         0.00041   0.00056   0.00001  -0.00765   0.00988
  26        4YY         0.00022   0.00026  -0.00075  -0.00816  -0.00633
  27        4ZZ        -0.00002   0.00001   0.00004  -0.00950  -0.01852
  28        4XY         0.00018  -0.00022  -0.00001   0.00015   0.00980
  29        4XZ         0.00000  -0.00000  -0.00000   0.00000   0.00019
  30        4YZ         0.00000   0.00000   0.00001   0.00001   0.00023
  31 3   O  1S          0.00002   0.00002   0.99282  -0.00019  -0.02595
  32        2S          0.00014   0.00016   0.02581  -0.00001   0.05768
  33        2PX         0.00002  -0.00001   0.00000  -0.00001  -0.00291
  34        2PY         0.00002   0.00002  -0.00120  -0.00009  -0.03451
  35        2PZ        -0.00000  -0.00000   0.00002  -0.00000   0.00024
  36        3S         -0.00050  -0.00054   0.01257  -0.00024   0.04627
  37        3PX        -0.00012   0.00012   0.00001   0.00005  -0.00254
  38        3PY         0.00024   0.00027  -0.00127   0.00086  -0.01677
  39        3PZ        -0.00000  -0.00000   0.00001  -0.00001  -0.00004
  40        4XX         0.00003   0.00003  -0.00795  -0.00009  -0.00170
  41        4YY        -0.00009  -0.00009  -0.00750  -0.00004   0.00792
  42        4ZZ         0.00010   0.00012  -0.00796  -0.00000  -0.00035
  43        4XY        -0.00004   0.00003  -0.00001   0.00001   0.00131
  44        4XZ        -0.00000   0.00000   0.00000  -0.00000  -0.00003
  45        4YZ         0.00000   0.00000  -0.00001   0.00000  -0.00005
  46 4   F  1S          0.00005   0.99300   0.00001   0.00001  -0.10017
  47        2S          0.00028   0.01957   0.00005   0.00045   0.22528
  48        2PX        -0.00003  -0.00070  -0.00001  -0.00012  -0.05108
  49        2PY         0.00003   0.00029  -0.00004   0.00004   0.02110
  50        2PZ         0.00000   0.00001   0.00000   0.00000   0.00054
  51        3S         -0.00083   0.01537  -0.00006  -0.00126   0.20312
  52        3PX         0.00018   0.00036   0.00007   0.00154  -0.03358
  53        3PY        -0.00018  -0.00014   0.00018  -0.00070   0.01097
  54        3PZ        -0.00000  -0.00000  -0.00000  -0.00002   0.00024
  55        4XX         0.00006  -0.00840   0.00005  -0.00057   0.01740
  56        4YY         0.00017  -0.00810  -0.00008   0.00019   0.00434
  57        4ZZ         0.00022  -0.00800   0.00005   0.00045   0.00333
  58        4XY         0.00004   0.00024   0.00004   0.00054  -0.00641
  59        4XZ         0.00000   0.00001  -0.00000   0.00002  -0.00017
  60        4YZ        -0.00000  -0.00000   0.00000  -0.00001   0.00006
                           6         7         8         9        10
                           O         O         O         O         O
     Eigenvalues --    -1.26742  -1.07098  -0.69086  -0.62123  -0.56278
   1 1   F  1S          0.11561   0.04026   0.07362  -0.04017  -0.00012
   2        2S         -0.26205  -0.09198  -0.15241   0.07721  -0.00012
   3        2PX        -0.03659   0.00012   0.35342  -0.22882  -0.00623
   4        2PY        -0.02643   0.02441   0.14346  -0.27912  -0.00250
   5        2PZ        -0.00068  -0.00020   0.00463  -0.00537   0.42707
   6        3S         -0.24100  -0.09378  -0.26473   0.16002   0.00129
   7        3PX        -0.01208   0.00513   0.20451  -0.12217  -0.00372
   8        3PY        -0.01169   0.01954   0.07774  -0.16548  -0.00110
   9        3PZ        -0.00039  -0.00013   0.00255  -0.00325   0.27122
  10        4XX        -0.00671  -0.00022   0.02484  -0.00604  -0.00058
  11        4YY        -0.00667   0.00159   0.00245  -0.01149  -0.00020
  12        4ZZ        -0.00504  -0.00205   0.00017  -0.00142   0.00033
  13        4XY        -0.00307   0.00500   0.01071  -0.01097  -0.00014
  14        4XZ        -0.00010  -0.00001   0.00038  -0.00026   0.02047
  15        4YZ        -0.00008   0.00006   0.00013  -0.00028   0.01028
  16 2   C  1S         -0.02315  -0.08929  -0.12416  -0.01404  -0.00132
  17        2S          0.04522   0.19348   0.30129   0.03368   0.00313
  18        2PX         0.14578  -0.00192  -0.03398   0.35686   0.00012
  19        2PY        -0.00589   0.23538  -0.19999  -0.01734   0.00068
  20        2PZ        -0.00040  -0.00205  -0.00073  -0.00004   0.31359
  21        3S          0.00970   0.03010   0.15969   0.02447   0.00137
  22        3PX        -0.00842   0.00022   0.00241   0.03489  -0.00039
  23        3PY        -0.00136  -0.01128  -0.02563  -0.01172  -0.00134
  24        3PZ         0.00012   0.00047   0.00092   0.00007   0.15506
  25        4XX         0.00235  -0.02860   0.00410  -0.00094   0.00013
  26        4YY        -0.00221   0.02267  -0.01346  -0.00030   0.00006
  27        4ZZ        -0.00413  -0.01426  -0.01315  -0.00047  -0.00071
  28        4XY        -0.02695  -0.00109   0.00426  -0.02093   0.00003
  29        4XZ        -0.00053  -0.00000   0.00007  -0.00056  -0.00469
  30        4YZ         0.00001  -0.00076   0.00036   0.00003  -0.00766
  31 3   O  1S         -0.00964  -0.19467   0.05636   0.00552  -0.00010
  32        2S          0.02116   0.42890  -0.12476  -0.01303  -0.00039
  33        2PX         0.01210   0.00036  -0.00691   0.11852   0.00015
  34        2PY        -0.01165  -0.16080  -0.05191  -0.00905   0.00210
  35        2PZ         0.00010   0.00209   0.00009   0.00005   0.15572
  36        3S          0.01774   0.39173  -0.15971  -0.01248   0.00309
  37        3PX         0.00929  -0.00023  -0.00499   0.07050   0.00024
  38        3PY        -0.00499  -0.05515  -0.03222  -0.00606  -0.00010
  39        3PZ         0.00000   0.00066  -0.00006   0.00007   0.07086
  40        4XX        -0.00050  -0.00956   0.00034  -0.00027  -0.00021
  41        4YY         0.00209   0.01067   0.01129   0.00091  -0.00042
  42        4ZZ        -0.00026  -0.00590   0.00170  -0.00003   0.00005
  43        4XY        -0.00430  -0.00007   0.00119  -0.01395  -0.00002
  44        4XZ         0.00007   0.00000  -0.00002   0.00020  -0.00020
  45        4YZ        -0.00002  -0.00031  -0.00002  -0.00000  -0.01390
  46 4   F  1S         -0.19574   0.04371   0.05974   0.05442  -0.00011
  47        2S          0.44144  -0.09923  -0.12303  -0.10570  -0.00024
  48        2PX        -0.07178  -0.00130  -0.27277  -0.32451   0.00430
  49        2PY         0.03853   0.02196   0.07759   0.24728  -0.00100
  50        2PZ         0.00102  -0.00017   0.00315   0.00552   0.30967
  51        3S          0.40996  -0.10325  -0.21429  -0.21310   0.00159
  52        3PX        -0.03597  -0.00473  -0.16216  -0.18268   0.00247
  53        3PY         0.01948   0.01711   0.04063   0.14741  -0.00006
  54        3PZ         0.00058  -0.00013   0.00171   0.00331   0.19432
  55        4XX         0.01857   0.00023   0.02309   0.01497  -0.00052
  56        4YY         0.00956   0.00086   0.00096   0.01003  -0.00019
  57        4ZZ         0.00739  -0.00191   0.00080   0.00226   0.00012
  58        4XY        -0.00747  -0.00447  -0.00713  -0.01165   0.00004
  59        4XZ        -0.00022   0.00000  -0.00030  -0.00032  -0.01576
  60        4YZ         0.00012   0.00005   0.00006   0.00024   0.00643
                          11        12        13        14        15
                           O         O         O         O         O
     Eigenvalues --    -0.53644  -0.48207  -0.47462  -0.45506  -0.37945
   1 1   F  1S          0.00408  -0.00013  -0.00111  -0.00285  -0.00010
   2        2S         -0.00204  -0.00012  -0.00855   0.00421   0.00010
   3        2PX         0.22873  -0.00473   0.32535   0.00898   0.00200
   4        2PY        -0.32267   0.01272  -0.32402   0.28595   0.00414
   5        2PZ         0.00246  -0.43408  -0.01314   0.00287  -0.24080
   6        3S         -0.03744   0.00140   0.04940   0.03707   0.00094
   7        3PX         0.13679  -0.00303   0.22252   0.00810   0.00192
   8        3PY        -0.20846   0.00901  -0.20812   0.18419   0.00217
   9        3PZ         0.00135  -0.30212  -0.00882   0.00222  -0.17510
  10        4XX         0.01513  -0.00033   0.00774  -0.00426   0.00006
  11        4YY        -0.00832   0.00036  -0.01666   0.00015  -0.00011
  12        4ZZ         0.00187  -0.00057  -0.00555  -0.00164  -0.00016
  13        4XY        -0.01027   0.00036  -0.00428   0.00376  -0.00002
  14        4XZ         0.00019  -0.01449  -0.00028   0.00006  -0.00409
  15        4YZ        -0.00016  -0.00870  -0.00044   0.00004   0.00102
  16 2   C  1S          0.04573   0.00010  -0.00932   0.04444  -0.00063
  17        2S         -0.12505  -0.00038   0.02619  -0.11904   0.00091
  18        2PX        -0.00969   0.00059  -0.02218   0.00869  -0.00000
  19        2PY        -0.21661  -0.00167   0.05991  -0.23217  -0.00173
  20        2PZ         0.00100   0.03961   0.00128  -0.00166   0.25681
  21        3S         -0.09243  -0.00009   0.00802  -0.03771   0.00693
  22        3PX         0.00906   0.00104   0.08424   0.01539  -0.00007
  23        3PY        -0.13533  -0.00076   0.01266   0.09700   0.00497
  24        3PZ         0.00020   0.02494   0.00093  -0.00116   0.09474
  25        4XX        -0.01120   0.00011  -0.00686   0.04117   0.00008
  26        4YY         0.02476  -0.00001   0.00265  -0.02143   0.00015
  27        4ZZ         0.00312  -0.00005  -0.00069   0.00181  -0.00028
  28        4XY         0.00462  -0.00143   0.03446   0.00662   0.00002
  29        4XZ        -0.00005   0.03177   0.00098   0.00008  -0.00100
  30        4YZ         0.00027   0.00140   0.00004  -0.00018   0.03924
  31 3   O  1S         -0.09283  -0.00056   0.01726  -0.05701  -0.00010
  32        2S          0.18927   0.00108  -0.03630   0.13198   0.00085
  33        2PX         0.00086  -0.00444   0.09478   0.02578   0.00011
  34        2PY         0.28910   0.00310  -0.09279   0.40805   0.01298
  35        2PZ        -0.00362   0.03313   0.00284  -0.00955   0.51524
  36        3S          0.42735   0.00291  -0.07455   0.16818  -0.00357
  37        3PX        -0.00043  -0.00399   0.05369   0.01582   0.00010
  38        3PY         0.11295   0.00135  -0.04690   0.23898   0.00965
  39        3PZ        -0.00094   0.01766   0.00153  -0.00646   0.34940
  40        4XX        -0.00896  -0.00006   0.00028   0.00776   0.00034
  41        4YY        -0.02754  -0.00026   0.00630  -0.02242  -0.00083
  42        4ZZ        -0.00341   0.00002  -0.00017   0.00495   0.00106
  43        4XY         0.00057   0.00035  -0.00263  -0.00132  -0.00001
  44        4XZ        -0.00002   0.00261   0.00006   0.00001  -0.00007
  45        4YZ         0.00035  -0.00244  -0.00021   0.00076  -0.03215
  46 4   F  1S          0.00096   0.00020  -0.00190  -0.00053  -0.00009
  47        2S          0.00423  -0.00006   0.01163   0.00341   0.00009
  48        2PX        -0.10696  -0.00530   0.36421   0.04821  -0.00228
  49        2PY        -0.26804  -0.01483   0.31590   0.38708   0.00417
  50        2PZ         0.00022   0.51498   0.01433   0.00501  -0.26068
  51        3S         -0.02809  -0.00155  -0.03109   0.01189   0.00086
  52        3PX        -0.05975  -0.00337   0.24665   0.03156  -0.00206
  53        3PY        -0.17322  -0.01029   0.20476   0.25123   0.00222
  54        3PZ        -0.00017   0.35396   0.00957   0.00360  -0.18881
  55        4XX         0.00966   0.00033  -0.01072  -0.00427   0.00008
  56        4YY        -0.00417  -0.00039   0.01526   0.00508  -0.00011
  57        4ZZ         0.00223   0.00059   0.00474   0.00030  -0.00017
  58        4XY         0.01036   0.00047  -0.00601  -0.00646   0.00002
  59        4XZ        -0.00005  -0.01844  -0.00035  -0.00011   0.00473
  60        4YZ        -0.00015   0.00926   0.00045   0.00013   0.00092
                          16        17        18        19        20
                           O         V         V         V         V
     Eigenvalues --    -0.33385  -0.04187   0.03723   0.24838   0.30519
   1 1   F  1S         -0.01084   0.00421   0.06269  -0.06606   0.02065
   2        2S          0.01986  -0.00789  -0.12639   0.14518  -0.05850
   3        2PX         0.03849  -0.02052  -0.31317   0.14748  -0.17202
   4        2PY         0.18420  -0.00629  -0.08317   0.22915   0.13307
   5        2PZ         0.00074  -0.22234   0.01375   0.00563  -0.00622
   6        3S          0.08550  -0.03422  -0.51804   0.64931  -0.21699
   7        3PX         0.03759  -0.02352  -0.36784   0.26734  -0.18702
   8        3PY         0.13804  -0.00918  -0.14131   0.31250   0.18797
   9        3PZ         0.00092  -0.18658   0.01079   0.00561  -0.00603
  10        4XX        -0.00391   0.00038   0.01108   0.00616   0.01915
  11        4YY        -0.00221   0.00034  -0.00063  -0.01784  -0.00270
  12        4ZZ        -0.00208   0.00198   0.01907  -0.00517  -0.02014
  13        4XY         0.00507  -0.00062  -0.00687  -0.01422   0.00308
  14        4XZ        -0.00003   0.01592  -0.00169  -0.00017   0.00119
  15        4YZ         0.00010   0.00688  -0.00099  -0.00081  -0.00026
  16 2   C  1S         -0.00065  -0.01228  -0.15527   0.01020   0.03233
  17        2S          0.00207   0.02148   0.27243   0.03685   0.13703
  18        2PX         0.07700   0.00222   0.05134   0.77870  -0.08827
  19        2PY         0.00177  -0.01893  -0.31215  -0.04210  -0.38724
  20        2PZ        -0.00009   0.62779  -0.05374   0.00209   0.00356
  21        3S         -0.00572   0.10987   1.51787  -0.38952  -1.82367
  22        3PX         0.11747   0.00012   0.01377   1.03227  -0.13160
  23        3PY        -0.00191  -0.00731  -0.14045  -0.13747  -2.00509
  24        3PZ         0.00004   0.45535  -0.04826   0.00507   0.02249
  25        4XX        -0.00155  -0.00265  -0.03693  -0.00614  -0.02823
  26        4YY         0.00094  -0.00188  -0.01278   0.00586   0.02288
  27        4ZZ        -0.00011   0.00278   0.03159  -0.00284  -0.01196
  28        4XY         0.04354  -0.00008  -0.00082   0.02820  -0.00647
  29        4XZ        -0.00009   0.00037   0.00001   0.00204  -0.00024
  30        4YZ         0.00001  -0.02477   0.00152  -0.00020  -0.00143
  31 3   O  1S         -0.00034   0.00277   0.03869  -0.01563  -0.11507
  32        2S          0.00109  -0.00497  -0.06696   0.02597   0.15845
  33        2PX         0.61815  -0.00065  -0.01606  -0.29232   0.03543
  34        2PY        -0.00119   0.00935   0.16347  -0.03821  -0.19643
  35        2PZ         0.00012  -0.41066   0.02832  -0.00018   0.00493
  36        3S          0.00279  -0.02859  -0.43470   0.24913   2.14325
  37        3PX         0.40305  -0.00061  -0.01657  -0.40147   0.05743
  38        3PY        -0.00150   0.01621   0.28999  -0.13517  -1.00422
  39        3PZ         0.00010  -0.39668   0.02839   0.00062   0.01374
  40        4XX        -0.00019   0.00070   0.00889  -0.00481  -0.04845
  41        4YY         0.00023  -0.00069  -0.00681   0.00287   0.01252
  42        4ZZ         0.00016   0.00179   0.02399  -0.00749  -0.05798
  43        4XY        -0.02762  -0.00002  -0.00097  -0.03010   0.00368
  44        4XZ         0.00043   0.00017   0.00000   0.00103  -0.00014
  45        4YZ        -0.00000  -0.00596   0.00159  -0.00020  -0.00079
  46 4   F  1S          0.01070   0.00421   0.06456   0.05756   0.00286
  47        2S         -0.02007  -0.00805  -0.13359  -0.13447  -0.01990
  48        2PX         0.05522   0.02224   0.33986   0.18167   0.12238
  49        2PY        -0.20074  -0.00635  -0.08963  -0.18034   0.18535
  50        2PZ        -0.00068  -0.21141   0.01240  -0.00742  -0.00421
  51        3S         -0.08276  -0.03280  -0.50830  -0.52395  -0.02479
  52        3PX         0.05183   0.02502   0.39203   0.25162   0.09859
  53        3PY        -0.14804  -0.00883  -0.14044  -0.21815   0.25685
  54        3PZ        -0.00089  -0.17543   0.00957  -0.00655  -0.00397
  55        4XX         0.00201   0.00021   0.00866   0.00483   0.01720
  56        4YY         0.00264   0.00035  -0.00026   0.01132  -0.00678
  57        4ZZ         0.00197   0.00181   0.01672  -0.00569  -0.01988
  58        4XY         0.00552   0.00056   0.00581  -0.01949   0.00285
  59        4XZ         0.00000  -0.01549   0.00161  -0.00073  -0.00096
  60        4YZ        -0.00010   0.00570  -0.00079   0.00082  -0.00052
                          21        22        23        24        25
                           V         V         V         V         V
     Eigenvalues --     0.46464   0.47363   0.47743   0.57523   0.83873
   1 1   F  1S          0.01823  -0.00125  -0.02997  -0.00039   0.00185
   2        2S         -0.00695   0.00019   0.00474  -0.02801   0.06452
   3        2PX         0.16361  -0.00583  -0.20482   0.03598  -0.06929
   4        2PY         0.18396  -0.00860  -0.03865   0.01378   0.11122
   5        2PZ        -0.00095  -0.11429   0.00149   0.00139  -0.00268
   6        3S         -0.58776   0.03399   0.82097   0.02256  -0.11954
   7        3PX        -0.25397   0.01540   0.13387  -0.03275   0.01571
   8        3PY        -0.01837   0.00331   0.23322  -0.11447  -0.06601
   9        3PZ        -0.00758  -0.13623   0.00415   0.00031   0.00105
  10        4XX        -0.10035   0.00496   0.03618   0.01097   0.05057
  11        4YY         0.01850  -0.00072   0.01084  -0.05688  -0.00084
  12        4ZZ         0.05333  -0.00376  -0.05016  -0.00280   0.01269
  13        4XY        -0.07077   0.00416   0.08080  -0.04867  -0.02226
  14        4XZ        -0.00365  -0.03350   0.00150   0.00057   0.00102
  15        4YZ        -0.00220  -0.02304   0.00074  -0.00035  -0.00019
  16 2   C  1S          0.03030  -0.00046  -0.00679   0.06440   0.04069
  17        2S         -1.03922   0.03195  -0.00769  -0.97234   0.45091
  18        2PX         0.03862  -0.00047  -0.72721  -0.01734  -0.00808
  19        2PY         0.59251  -0.02567   0.02510  -0.73958   0.28139
  20        2PZ        -0.03858  -0.92703  -0.00150   0.00569  -0.00456
  21        3S          1.69295  -0.07534   0.03897   1.38750   0.05733
  22        3PX         0.00289  -0.00296   2.08717   0.03979   0.00074
  23        3PY        -1.18334   0.05245  -0.02403   1.06170  -0.04609
  24        3PZ         0.04364   1.35621   0.00137  -0.01189   0.00004
  25        4XX         0.08498  -0.00605  -0.00196  -0.07571  -0.02549
  26        4YY        -0.04999  -0.00073  -0.01336   0.16450   0.26592
  27        4ZZ        -0.05283   0.00274   0.00455  -0.09441  -0.05893
  28        4XY         0.01748  -0.00072  -0.10199  -0.00238  -0.00230
  29        4XZ         0.00044   0.00087  -0.00092   0.00002   0.00012
  30        4YZ         0.00128  -0.00335  -0.00009  -0.00295  -0.00462
  31 3   O  1S          0.00476  -0.00047   0.00140  -0.02013   0.00945
  32        2S         -0.06546   0.00092  -0.00608   0.12791  -0.49031
  33        2PX        -0.01201   0.00068  -0.15611   0.00014   0.01225
  34        2PY         0.01673  -0.00055   0.01106  -0.48615  -0.65868
  35        2PZ        -0.00077  -0.11144  -0.00002   0.00523   0.00637
  36        3S          0.22927   0.00338   0.00676  -0.80478   0.57152
  37        3PX        -0.00763   0.00088  -0.34800  -0.00827  -0.01518
  38        3PY         0.12824  -0.01180   0.00304   0.13247   1.24408
  39        3PZ        -0.00522  -0.17668  -0.00008  -0.00123  -0.01347
  40        4XX        -0.02104   0.00009  -0.00393   0.06260  -0.18918
  41        4YY        -0.01426   0.00222   0.00640  -0.18388  -0.21728
  42        4ZZ        -0.00853  -0.00187  -0.00065   0.08058  -0.18134
  43        4XY        -0.00352   0.00005   0.05408   0.00330   0.00113
  44        4XZ         0.00007  -0.00028   0.00019  -0.00002  -0.00001
  45        4YZ         0.00198   0.05402  -0.00001   0.00391   0.00033
  46 4   F  1S          0.02188  -0.00148   0.03447   0.00006   0.00179
  47        2S         -0.04033   0.00149  -0.01463  -0.03778   0.07797
  48        2PX        -0.13129   0.00495  -0.19097  -0.05077   0.06341
  49        2PY         0.14643  -0.00710   0.03559   0.01013   0.11383
  50        2PZ        -0.00198  -0.11679  -0.00163   0.00131  -0.00255
  51        3S         -0.53070   0.03351  -0.85630   0.00396  -0.13652
  52        3PX         0.27525  -0.01672   0.18846   0.03585  -0.02465
  53        3PY        -0.01512   0.00346  -0.22859  -0.12112  -0.06122
  54        3PZ        -0.00765  -0.13493  -0.00468   0.00032   0.00118
  55        4XX        -0.10707   0.00517  -0.04574  -0.00424   0.05961
  56        4YY         0.01862  -0.00094   0.00017  -0.05544   0.00484
  57        4ZZ         0.03963  -0.00321   0.05349  -0.00473   0.01880
  58        4XY         0.05335  -0.00343   0.07541   0.05578   0.02488
  59        4XZ         0.00318   0.02993   0.00163  -0.00036  -0.00108
  60        4YZ        -0.00161  -0.01863  -0.00072  -0.00041  -0.00021
                          26        27        28        29        30
                           V         V         V         V         V
     Eigenvalues --     0.94378   0.95093   1.04113   1.09356   1.11779
   1 1   F  1S         -0.00028  -0.01274  -0.03627   0.00502   0.02548
   2        2S         -0.00502  -0.48370  -0.79388   0.09355   0.47714
   3        2PX        -0.00401   0.14114   0.45869  -0.03117  -0.18101
   4        2PY         0.00712   0.23291   0.06793  -0.04352  -0.35517
   5        2PZ         0.15793  -0.01018   0.00060  -0.61942   0.08880
   6        3S          0.00849   0.66355   1.58256  -0.21359  -1.14773
   7        3PX         0.00344  -0.22765  -0.62508   0.05650   0.35007
   8        3PY        -0.00759  -0.31521  -0.16500   0.04956   0.40957
   9        3PZ        -0.09418   0.00728  -0.00289   0.65394  -0.09569
  10        4XX        -0.00112  -0.21166  -0.36579   0.03901   0.18460
  11        4YY        -0.00313  -0.26515  -0.34565   0.04166   0.21957
  12        4ZZ        -0.00313  -0.17627  -0.40189   0.05054   0.26738
  13        4XY        -0.00160  -0.00682   0.01872  -0.00645  -0.04567
  14        4XZ        -0.02243   0.00101   0.00145   0.04357  -0.00714
  15        4YZ         0.03456   0.00187   0.00025   0.07110  -0.00934
  16 2   C  1S         -0.00026   0.00314   0.02900   0.00017   0.00042
  17        2S         -0.00046   0.03555   0.45693   0.00464   0.01325
  18        2PX         0.00032  -0.11429  -0.02998   0.05188   0.33963
  19        2PY         0.00141  -0.01666  -0.17266   0.00077   0.01345
  20        2PZ         0.07016  -0.00018  -0.00451  -0.00421   0.00089
  21        3S          0.00720  -0.02551  -0.56251  -0.01554  -0.05751
  22        3PX         0.00282  -0.56275   0.06712  -0.12958  -0.87778
  23        3PY         0.00245  -0.00868   0.05870  -0.00225  -0.01322
  24        3PZ        -0.44324  -0.00225   0.00119  -0.01025   0.00062
  25        4XX         0.00101   0.01557   0.26044   0.00236   0.00434
  26        4YY        -0.00119   0.00709   0.07960   0.00078   0.00738
  27        4ZZ         0.00096  -0.00538  -0.13200  -0.00231  -0.01167
  28        4XY        -0.00004   0.02453   0.03056  -0.03370  -0.24954
  29        4XZ        -0.00447  -0.00234   0.00243  -0.24073   0.03123
  30        4YZ        -0.01058   0.00008  -0.00087   0.00706  -0.00184
  31 3   O  1S          0.00037  -0.00034  -0.00368  -0.00011   0.00013
  32        2S          0.00384  -0.00283   0.01832   0.00041   0.01577
  33        2PX         0.00403  -0.78167   0.05885  -0.04885  -0.41190
  34        2PY        -0.00872  -0.01204  -0.04961  -0.00221  -0.01416
  35        2PZ        -0.92220  -0.00454  -0.00028  -0.00911   0.00049
  36        3S         -0.01468   0.01566   0.09785   0.00419  -0.01303
  37        3PX        -0.00558   1.08379  -0.10279   0.10679   0.86793
  38        3PY         0.01481   0.01540   0.06018   0.00257   0.03028
  39        3PZ         1.20267   0.00597   0.00014   0.01189  -0.00026
  40        4XX         0.00074   0.00030   0.03753   0.00083   0.00643
  41        4YY         0.00240  -0.00293  -0.00457   0.00084   0.01002
  42        4ZZ         0.00149  -0.00373  -0.05993  -0.00202  -0.00760
  43        4XY        -0.00014   0.02925  -0.00978   0.01114   0.14569
  44        4XZ        -0.00058  -0.00227   0.00090  -0.09969   0.01246
  45        4YZ         0.02846   0.00020   0.00006  -0.00002   0.00013
  46 4   F  1S         -0.00034   0.01057  -0.03709  -0.00682  -0.03364
  47        2S         -0.00812   0.41678  -0.82114  -0.12642  -0.61745
  48        2PX         0.00268   0.10298  -0.43826  -0.04647  -0.25152
  49        2PY         0.00905  -0.23151   0.04322   0.03966   0.31213
  50        2PZ         0.14262   0.01129  -0.00870   0.61654  -0.09010
  51        3S          0.01205  -0.54753   1.60357   0.28337   1.45094
  52        3PX        -0.00124  -0.17382   0.55409   0.06713   0.38264
  53        3PY        -0.01000   0.28958  -0.11492  -0.04129  -0.32891
  54        3PZ        -0.07846  -0.00811   0.00683  -0.64387   0.09672
  55        4XX        -0.00259   0.17784  -0.37692  -0.05060  -0.22596
  56        4YY        -0.00486   0.23597  -0.35715  -0.05673  -0.28831
  57        4ZZ        -0.00412   0.14486  -0.39819  -0.06692  -0.33503
  58        4XY         0.00175  -0.01180  -0.02254  -0.00603  -0.03632
  59        4XZ         0.02144   0.00134  -0.00235   0.05850  -0.00981
  60        4YZ         0.03372  -0.00135   0.00146  -0.06586   0.00867
                          31        32        33        34        35
                           V         V         V         V         V
     Eigenvalues --     1.22262   1.26484   1.27881   1.33571   1.35614
   1 1   F  1S         -0.01632   0.00417  -0.00221  -0.03269  -0.00174
   2        2S         -0.19831  -0.01655  -0.03744  -0.50077  -0.02025
   3        2PX        -0.22742  -0.44092   0.00264  -0.07398  -0.00310
   4        2PY         0.36092   0.35185  -0.06099  -0.44948  -0.00148
   5        2PZ        -0.01803   0.01040  -0.58532   0.07354  -0.20982
   6        3S          0.57397  -0.10577   0.07688   1.13574   0.05097
   7        3PX         0.35560   0.62062   0.00372   0.18954   0.01082
   8        3PY        -0.42179  -0.44638   0.10029   0.80948   0.00694
   9        3PZ         0.02311  -0.01370   0.83730  -0.11553   0.40188
  10        4XX        -0.16531  -0.13457  -0.01482  -0.17875  -0.00941
  11        4YY         0.11214   0.08725  -0.00722  -0.08748   0.00362
  12        4ZZ        -0.21197   0.08802  -0.01904  -0.32769  -0.02055
  13        4XY         0.04838   0.01249  -0.01268  -0.15367   0.00113
  14        4XZ        -0.00004   0.00267   0.00369   0.02531  -0.31201
  15        4YZ        -0.00188   0.00158  -0.07517   0.01040  -0.25549
  16 2   C  1S         -0.01941   0.00088  -0.00349  -0.02928  -0.00043
  17        2S          0.00163  -0.00193  -0.01498  -0.03164  -0.00045
  18        2PX         0.03094   0.13845  -0.00271  -0.01277   0.00608
  19        2PY        -0.20135   0.01702   0.00961   0.04083   0.00180
  20        2PZ         0.00452   0.00047   0.14247  -0.01435   0.00840
  21        3S         -1.85489   0.10365  -0.16393  -2.19139  -0.03064
  22        3PX        -0.08985  -0.35082   0.01098   0.04690   0.01155
  23        3PY        -0.51405   0.01962  -0.13173  -1.28891  -0.01386
  24        3PZ         0.00032  -0.00365  -0.78858   0.11732  -0.01313
  25        4XX         0.19823  -0.00864  -0.00598   0.01234  -0.00182
  26        4YY        -0.19064   0.00848  -0.00321   0.01167   0.00293
  27        4ZZ        -0.08117   0.00382  -0.01248  -0.23099  -0.00403
  28        4XY        -0.02373  -0.12812   0.00031  -0.01198  -0.01697
  29        4XZ         0.00143  -0.00613   0.03330  -0.00782   0.57133
  30        4YZ         0.00131  -0.00361  -0.25669  -0.00849   0.09162
  31 3   O  1S         -0.06367   0.00421  -0.00506  -0.06148  -0.00069
  32        2S         -1.07336   0.08545  -0.06526  -0.83672  -0.00963
  33        2PX        -0.00698   0.09715   0.00190   0.01505   0.00537
  34        2PY         0.20520  -0.02476   0.00310   0.09760   0.00156
  35        2PZ        -0.00187  -0.00021  -0.13846   0.01402  -0.02039
  36        3S          3.01511  -0.21033   0.24488   3.00208   0.03467
  37        3PX         0.04607  -0.02306  -0.00486  -0.02345  -0.00142
  38        3PY        -1.18673   0.09193  -0.05961  -0.88540  -0.01050
  39        3PZ         0.01530   0.00206   0.51243  -0.03321  -0.00824
  40        4XX        -0.22143   0.02298   0.00106   0.00317   0.00030
  41        4YY        -0.38547   0.03353  -0.01333  -0.23860  -0.00357
  42        4ZZ        -0.27512   0.01132  -0.04528  -0.47693  -0.00494
  43        4XY         0.00855  -0.01638  -0.00033   0.00037   0.01462
  44        4XZ         0.00026  -0.00170   0.00779  -0.00264   0.19189
  45        4YZ         0.00116   0.00180   0.20946  -0.00795  -0.05532
  46 4   F  1S         -0.01882  -0.00397  -0.00178  -0.03098   0.00041
  47        2S         -0.24489   0.00263  -0.03255  -0.49693   0.00106
  48        2PX         0.12038  -0.46956   0.01253   0.15584  -0.00048
  49        2PY         0.30563  -0.46548  -0.05754  -0.45614  -0.01345
  50        2PZ        -0.02176  -0.01359  -0.56330   0.06982   0.21491
  51        3S          0.71125   0.11014   0.06079   1.09483  -0.00660
  52        3PX        -0.19810   0.64025  -0.02320  -0.29093   0.00342
  53        3PY        -0.34271   0.59440   0.09236   0.79079   0.01977
  54        3PZ         0.02697   0.01784   0.79200  -0.10601  -0.36773
  55        4XX        -0.14603   0.14177  -0.01749  -0.20440   0.00639
  56        4YY         0.05897  -0.12082  -0.00377  -0.08604  -0.01016
  57        4ZZ        -0.24527  -0.06904  -0.01335  -0.29879   0.00684
  58        4XY        -0.06286   0.03796   0.01276   0.15039   0.00983
  59        4XZ        -0.00100   0.00117  -0.01629  -0.01758  -0.25421
  60        4YZ        -0.00103  -0.00190  -0.05183   0.00279   0.23648
                          36        37        38        39        40
                           V         V         V         V         V
     Eigenvalues --     1.37043   1.58864   1.63642   1.74822   1.76125
   1 1   F  1S         -0.00298   0.02253  -0.00639   0.01802  -0.00194
   2        2S         -0.04228  -0.19649   0.19574   0.28081  -0.02816
   3        2PX        -0.00486  -0.29813   0.22597   0.16658  -0.00064
   4        2PY        -0.02366  -0.16774   0.03140  -0.20250  -0.00289
   5        2PZ        -0.18063  -0.00111   0.00547   0.01027  -0.03548
   6        3S          0.09869   0.00387  -0.20482  -0.70706   0.07448
   7        3PX         0.01525   0.18161  -0.24043  -0.38583   0.00782
   8        3PY         0.04665   0.15150   0.16098   0.46865   0.01296
   9        3PZ         0.32519  -0.00040  -0.00793  -0.01766   0.04081
  10        4XX        -0.00083   0.12775   0.38857  -0.08836  -0.01918
  11        4YY        -0.01937  -0.42594  -0.09772  -0.09627   0.01188
  12        4ZZ        -0.03122   0.23433  -0.13637   0.49845  -0.02321
  13        4XY        -0.01794  -0.07201  -0.19763   0.33212  -0.01321
  14        4XZ        -0.27273  -0.00389   0.01948  -0.01132   0.51077
  15        4YZ         0.03964  -0.01856  -0.02371  -0.03145  -0.48476
  16 2   C  1S         -0.00203  -0.00293  -0.00207   0.02828  -0.00005
  17        2S         -0.00066   0.02950   0.08234   0.03863  -0.00316
  18        2PX        -0.00156  -0.11970   0.01856   0.01315   0.00229
  19        2PY         0.00961  -0.01494   0.15372  -0.14764  -0.00162
  20        2PZ         0.01978   0.00011   0.00158   0.00371  -0.00722
  21        3S         -0.12002  -0.30055  -1.10356  -1.73138   0.01615
  22        3PX         0.00106  -0.29253   0.06263   0.06302   0.05594
  23        3PY        -0.04315  -0.22769  -0.88150  -2.19459   0.00391
  24        3PZ        -0.19807   0.00416   0.01318   0.02343   0.00426
  25        4XX        -0.01469  -0.02774  -0.30550   0.18820   0.00286
  26        4YY         0.01685  -0.01433   0.14938  -0.45656  -0.00078
  27        4ZZ        -0.01562   0.03859   0.20735   0.35585  -0.00198
  28        4XY        -0.00052   0.44324  -0.04040  -0.01907  -0.00626
  29        4XZ        -0.08457   0.01458  -0.00147  -0.00171  -0.00383
  30        4YZ         0.57025   0.00215  -0.00615   0.01733   0.01214
  31 3   O  1S         -0.00225  -0.00834  -0.02411  -0.05868   0.00007
  32        2S         -0.03718  -0.14143  -0.83304  -0.81645   0.00703
  33        2PX         0.00082  -0.10504   0.00839   0.01082   0.00188
  34        2PY         0.00815   0.01212   0.33416  -0.20894  -0.00317
  35        2PZ        -0.13173  -0.00083  -0.00424  -0.00610  -0.02257
  36        3S          0.12395   0.48528   2.14098   3.47144  -0.01659
  37        3PX        -0.00158   0.09139  -0.01394  -0.01594  -0.01443
  38        3PY        -0.04030  -0.15192  -0.79693  -0.93709   0.00703
  39        3PZ        -0.01182   0.00201   0.01156   0.02290   0.02468
  40        4XX         0.00096  -0.02816  -0.51680  -0.08832   0.00874
  41        4YY        -0.01596  -0.04527  -0.27522  -0.33758   0.00073
  42        4ZZ        -0.01472  -0.02116   0.28650  -0.00804  -0.00638
  43        4XY        -0.00136  -0.38721   0.02836   0.02131   0.01551
  44        4XZ        -0.02559   0.02605  -0.00224  -0.01300   0.54230
  45        4YZ        -0.34293  -0.00162   0.01398  -0.01538  -0.07034
  46 4   F  1S         -0.00311  -0.02575  -0.00125   0.02400   0.00270
  47        2S         -0.04434   0.17837   0.22282   0.24090   0.03316
  48        2PX         0.00877  -0.32209  -0.20363  -0.09343   0.00034
  49        2PY        -0.02589   0.11939   0.00288  -0.19401   0.00256
  50        2PZ        -0.25743   0.00375   0.00538   0.00797   0.05217
  51        3S          0.10187   0.04298  -0.32995  -0.69817  -0.09142
  52        3PX        -0.02095   0.21382   0.24243   0.31111   0.01183
  53        3PY         0.04743  -0.03974   0.15453   0.44091  -0.01489
  54        3PZ         0.43680  -0.00378  -0.00804  -0.01496  -0.05969
  55        4XX        -0.00518  -0.12840   0.38505   0.03621   0.01587
  56        4YY        -0.01785   0.39963  -0.10834  -0.12547  -0.00939
  57        4ZZ        -0.03175  -0.23775  -0.08201   0.41194   0.03199
  58        4XY         0.01809  -0.08817   0.22131  -0.22984  -0.02364
  59        4XZ         0.32569  -0.00427  -0.01294   0.00047   0.42030
  60        4YZ        -0.02038   0.01395  -0.02375  -0.03862   0.15785
                          41        42        43        44        45
                           V         V         V         V         V
     Eigenvalues --     1.77674   1.79578   1.80233   1.84332   1.89527
   1 1   F  1S         -0.00068  -0.00008   0.00674  -0.05010  -0.02639
   2        2S         -0.00605   0.00068   0.44330  -0.97635  -0.13478
   3        2PX         0.01070  -0.00058   0.11140  -0.15268  -0.05551
   4        2PY        -0.01537   0.00201   0.07300   0.00335   0.26044
   5        2PZ        -0.04732  -0.00796  -0.00032   0.00129  -0.00106
   6        3S          0.01965  -0.00027  -0.90198   2.36943   0.57860
   7        3PX        -0.01602   0.00123  -0.17075   0.63489   0.32139
   8        3PY         0.04098  -0.00651  -0.21372   0.11439  -0.37371
   9        3PZ         0.05785   0.00878  -0.00148   0.00028   0.00314
  10        4XX        -0.00609  -0.00627  -0.10563  -0.59175   0.16734
  11        4YY        -0.00761   0.01047  -0.07649  -0.24536  -0.58736
  12        4ZZ         0.00664  -0.00479   0.49353  -0.04964   0.19318
  13        4XY        -0.00345   0.00325   0.46771  -0.16047  -0.07424
  14        4XZ        -0.10751  -0.11288   0.01815   0.00486   0.00581
  15        4YZ         0.65741   0.24633  -0.01143  -0.00800   0.01145
  16 2   C  1S          0.00184  -0.00056  -0.00068   0.02589  -0.00247
  17        2S          0.00711  -0.00362   0.02359   0.38270   0.20852
  18        2PX         0.00102   0.00027   0.06483   0.01940   0.05063
  19        2PY        -0.00416   0.00095   0.01514  -0.11414   0.17336
  20        2PZ        -0.00831   0.00007  -0.00088  -0.00574  -0.00447
  21        3S         -0.14503   0.04508   0.05437  -1.90415  -0.66311
  22        3PX         0.03073   0.00300  -0.65189  -0.04190  -0.43439
  23        3PY        -0.14289   0.03296   0.24008   0.86534   0.92296
  24        3PZ         0.00246   0.00102  -0.00065   0.02609   0.00688
  25        4XX         0.00942  -0.00169  -0.04479  -0.20661  -0.33155
  26        4YY        -0.02789   0.00707   0.04998  -0.00299   0.27754
  27        4ZZ         0.02471  -0.00694  -0.01975   0.22221   0.05445
  28        4XY        -0.00328  -0.00007  -0.00114  -0.00396   0.03577
  29        4XZ         0.00230  -0.00764   0.00185   0.00002   0.00225
  30        4YZ        -0.01349   0.00398  -0.00163  -0.00165  -0.00943
  31 3   O  1S         -0.00357   0.00087   0.00490  -0.00815   0.02184
  32        2S         -0.06595   0.01711   0.06211   0.02889  -0.22090
  33        2PX         0.00096  -0.00166  -0.00684  -0.00092   0.00096
  34        2PY        -0.00642   0.00141   0.02880  -0.04846   0.30757
  35        2PZ         0.07145  -0.02317   0.00068   0.00279   0.00196
  36        3S          0.25006  -0.06397  -0.29485   0.05306  -0.27734
  37        3PX        -0.00733   0.00106   0.15370   0.00940   0.08476
  38        3PY        -0.07355   0.01935   0.07040  -0.07974  -0.12660
  39        3PZ        -0.08633   0.02874  -0.00271  -0.00938  -0.00978
  40        4XX        -0.03180   0.00952  -0.01141  -0.47475   0.46370
  41        4YY        -0.02204   0.00526   0.02829   0.04362  -0.06523
  42        4ZZ         0.02273  -0.00714   0.01150   0.40513  -0.43491
  43        4XY         0.00411  -0.00205   0.00513  -0.00497   0.14448
  44        4XZ         0.38477   0.66753   0.02640   0.00128   0.00509
  45        4YZ         0.20609  -0.05793   0.00132  -0.00608   0.00227
  46 4   F  1S          0.00166   0.00037  -0.01830  -0.05341  -0.05100
  47        2S          0.02397   0.00312  -0.58522  -0.97142  -0.56076
  48        2PX        -0.00831   0.00258   0.15180   0.14983   0.02131
  49        2PY        -0.01092   0.00443  -0.02092  -0.00363   0.13181
  50        2PZ        -0.00935   0.02716  -0.00118   0.00102  -0.00293
  51        3S         -0.06248  -0.00960   1.28328   2.36567   1.66143
  52        3PX         0.02246  -0.00244  -0.32406  -0.63215  -0.38374
  53        3PY         0.02428  -0.01049   0.12133   0.10513  -0.08751
  54        3PZ         0.01133  -0.03330   0.00464   0.00051   0.00837
  55        4XX         0.01645   0.00820   0.03100  -0.65795  -0.27482
  56        4YY        -0.01552  -0.00094   0.08261  -0.27211  -0.55202
  57        4ZZ         0.02586  -0.00292  -0.58991   0.00941   0.18854
  58        4XY        -0.00599   0.00283   0.54889   0.11809   0.08121
  59        4XZ         0.21639  -0.20274   0.01636  -0.00537  -0.00292
  60        4YZ         0.56024  -0.66428   0.01939  -0.01180   0.00832
                          46        47        48        49        50
                           V         V         V         V         V
     Eigenvalues --     1.91765   1.94795   2.06912   2.11106   2.52371
   1 1   F  1S         -0.07576   0.02436  -0.01026  -0.02040   0.00126
   2        2S         -1.18208   0.19589  -0.03501   0.00929  -0.03823
   3        2PX         0.05892  -0.04662   0.05220   0.15171  -0.00803
   4        2PY        -0.10478  -0.07757   0.02375   0.05905  -0.01139
   5        2PZ        -0.00655   0.00230   0.16139  -0.05812  -0.06584
   6        3S          3.23661  -0.73155   0.21170   0.28613   0.06865
   7        3PX         0.35092  -0.05133   0.00258  -0.07143   0.01327
   8        3PY         0.51301  -0.03280   0.02709   0.05441   0.03057
   9        3PZ         0.01872  -0.00636  -0.35277   0.13567   0.24007
  10        4XX        -0.75977  -0.11589  -0.05541  -0.13474  -0.01350
  11        4YY        -0.40579   0.50013   0.08430   0.25337   0.00561
  12        4ZZ         0.04154  -0.14124  -0.09540  -0.19910   0.00570
  13        4XY        -0.12907   0.15969  -0.07512  -0.20143   0.01423
  14        4XZ        -0.00433   0.00118  -0.53464   0.20292   0.37183
  15        4YZ         0.00080  -0.00222  -0.24778   0.09802   0.40645
  16 2   C  1S          0.00086  -0.00138   0.02419   0.06258  -0.00224
  17        2S          0.02942   0.04947   0.08720   0.19369   0.00265
  18        2PX        -0.14490  -0.00744   0.01517   0.04256   0.04383
  19        2PY         0.05619   0.01517  -0.07156  -0.18825  -0.00960
  20        2PZ        -0.00235  -0.00021   0.31754  -0.12170  -0.05906
  21        3S         -0.16067  -0.09042  -0.41287  -0.84170   0.00481
  22        3PX         2.16300  -0.84175   0.03335   0.07933   0.06950
  23        3PY         0.49641   0.10575  -0.05393  -0.21570  -0.01623
  24        3PZ         0.00116   0.00116   0.49611  -0.18359  -0.04229
  25        4XX        -0.08879  -0.06375  -0.10125  -0.25118  -0.00606
  26        4YY         0.10209   0.04152  -0.11238  -0.32052   0.00475
  27        4ZZ         0.00460   0.01772   0.33471   0.91347  -0.00746
  28        4XY        -0.34864   0.22441  -0.00744  -0.01398   0.01494
  29        4XZ        -0.01236   0.00674   0.00872  -0.00501   0.93011
  30        4YZ        -0.00346  -0.00105  -0.06583   0.02939  -0.26129
  31 3   O  1S          0.00898   0.00286  -0.00712  -0.01572   0.00003
  32        2S         -0.00010  -0.03776   0.01821   0.08062  -0.01385
  33        2PX         0.13577  -0.25737   0.00465   0.01060   0.00366
  34        2PY         0.08963   0.04150  -0.08934  -0.25083   0.00706
  35        2PZ         0.00054   0.00034   0.11012  -0.03604   0.00125
  36        3S         -0.32661  -0.01758   0.21031   0.45522   0.02623
  37        3PX        -0.61585   0.53396  -0.01393  -0.03438  -0.02975
  38        3PY         0.02799  -0.01860  -0.03770  -0.04336  -0.01247
  39        3PZ        -0.00402  -0.00150  -0.32757   0.12811   0.10859
  40        4XX         0.12393   0.08262   0.12729   0.34826  -0.00472
  41        4YY        -0.00967  -0.02488   0.00227  -0.03149   0.00012
  42        4ZZ        -0.10054  -0.06600  -0.12852  -0.28326   0.00188
  43        4XY        -0.17665  -0.61856   0.01381   0.03981   0.02634
  44        4XZ        -0.01026  -0.00686  -0.00929   0.00322  -0.26681
  45        4YZ        -0.00123   0.00091   0.54757  -0.21683  -0.26279
  46 4   F  1S          0.05144  -0.03583  -0.00886  -0.01741  -0.00164
  47        2S          0.86490  -0.27276  -0.00929   0.06734   0.05842
  48        2PX         0.07830  -0.03993  -0.04706  -0.14055  -0.01590
  49        2PY         0.23434   0.13515   0.02189   0.05386   0.01057
  50        2PZ         0.00419  -0.00253   0.15809  -0.05699   0.08337
  51        3S         -2.30128   0.99950   0.13071   0.10397  -0.10603
  52        3PX         0.12488  -0.14740   0.00620   0.09387   0.03619
  53        3PY        -0.66106  -0.04756   0.00910   0.01370  -0.02678
  54        3PZ        -0.01236   0.00729  -0.34019   0.12964  -0.27070
  55        4XX         0.71710   0.10174  -0.05721  -0.14510   0.00202
  56        4YY         0.08480  -0.64743   0.09064   0.26453   0.00451
  57        4ZZ         0.01183   0.18564  -0.08387  -0.16635  -0.00101
  58        4XY        -0.02192   0.24558   0.07394   0.20129   0.01335
  59        4XZ        -0.01123   0.00072   0.55648  -0.20995   0.56028
  60        4YZ         0.00175   0.00476  -0.22968   0.09009  -0.35034
                          51        52        53        54        55
                           V         V         V         V         V
     Eigenvalues --     2.58238   2.68771   2.73302   2.94514   3.01045
   1 1   F  1S          0.00170  -0.02030  -0.04364   0.01937  -0.01911
   2        2S         -0.03549   0.66012   0.68476  -0.48801  -0.64227
   3        2PX        -0.01430   0.07668   0.21100  -0.13477  -0.00621
   4        2PY        -0.00405   0.16243   0.03685  -0.02061  -0.05568
   5        2PZ        -0.04823   0.00076   0.00178  -0.00102   0.00083
   6        3S          0.05510  -1.30396  -1.09789   0.90788   1.55441
   7        3PX         0.02744  -0.33806  -0.69195   0.54219   0.81373
   8        3PY         0.00091  -0.66590  -0.04576   0.11342   0.71834
   9        3PZ         0.19429   0.00157  -0.00126   0.00258   0.01059
  10        4XX         0.00778   0.02689  -0.52035   0.43511   0.27697
  11        4YY        -0.01037  -0.24333   0.10587  -0.18565   0.14350
  12        4ZZ         0.00338   0.11687   0.13414  -0.09860  -0.41576
  13        4XY        -0.00352  -0.46731  -0.07246   0.07751   0.83872
  14        4XZ         0.48499   0.01826   0.01288   0.00315   0.01690
  15        4YZ         0.12910   0.01133   0.01030   0.00021   0.01630
  16 2   C  1S          0.00317   0.04753  -0.06828   0.05168   0.09862
  17        2S         -0.00109   0.00510  -0.25173  -1.66003  -1.13936
  18        2PX         0.00932  -0.95625  -0.30517  -0.00444   0.28847
  19        2PY         0.02871   0.29164  -1.00777  -0.61170   0.71682
  20        2PZ         0.10415  -0.00468   0.00894   0.01694   0.01084
  21        3S          0.01500   0.03525  -0.74389  -1.75595  -1.40844
  22        3PX         0.01539  -1.39429  -0.42047   0.05766   0.02449
  23        3PY         0.05007   0.43562  -1.36088  -0.03673  -0.13387
  24        3PZ         0.08288  -0.00309   0.00822   0.01541   0.01424
  25        4XX         0.02101   0.07606  -0.27458   0.41650  -0.88368
  26        4YY        -0.01562  -0.02595   0.07979  -0.73340   0.90658
  27        4ZZ         0.00625   0.17499  -0.10801   0.75864   0.68393
  28        4XY         0.00677  -0.10800  -0.08374   0.17331  -0.37443
  29        4XZ         0.27519   0.06735   0.01978  -0.00195  -0.00079
  30        4YZ         0.98762  -0.01944   0.05397  -0.00725  -0.00222
  31 3   O  1S          0.00016   0.00151  -0.01268  -0.04796  -0.01950
  32        2S          0.04484   0.28540  -0.92486  -0.35732  -0.28929
  33        2PX         0.00102  -0.03025  -0.00712  -0.00434   0.01251
  34        2PY        -0.02138  -0.05468   0.11881  -0.29778   0.24384
  35        2PZ        -0.02301   0.00209  -0.00576   0.00695  -0.00428
  36        3S         -0.09247  -0.73139   2.58691   1.86545   0.70361
  37        3PX        -0.00783   0.54813   0.19076  -0.05436   0.06277
  38        3PY         0.04160   0.38907  -1.34964  -1.23402  -0.09524
  39        3PZ        -0.33353  -0.00000   0.00808   0.01509  -0.00208
  40        4XX         0.01401   0.11764  -0.38155  -0.53734   0.04305
  41        4YY         0.00120  -0.24730   0.86307   1.12071  -0.32579
  42        4ZZ        -0.00594   0.11031  -0.42326  -0.53817  -0.04164
  43        4XY         0.00747  -0.54109  -0.21122   0.10397  -0.15741
  44        4XZ        -0.08190  -0.00222   0.00010  -0.00144   0.00228
  45        4YZ         0.84193  -0.01127   0.01721  -0.03730   0.00897
  46 4   F  1S          0.00066   0.03438  -0.02109   0.00624  -0.01487
  47        2S         -0.01160  -1.04205   0.13214  -0.45841  -0.45212
  48        2PX         0.00726   0.21468  -0.10778   0.12279   0.02654
  49        2PY         0.00230  -0.14116  -0.06851   0.00977  -0.07964
  50        2PZ        -0.00938  -0.00140   0.00039  -0.00059   0.00022
  51        3S          0.01534   1.96699  -0.06185   0.92263   1.06439
  52        3PX        -0.01601  -0.82448   0.29291  -0.59359  -0.44417
  53        3PY        -0.01232   0.54957   0.35097   0.05882   0.49890
  54        3PZ         0.02997   0.00179  -0.00057   0.00347   0.00437
  55        4XX         0.01246   0.34735  -0.37778   0.50995  -0.02696
  56        4YY        -0.00991   0.04104   0.19700  -0.30147   0.17886
  57        4ZZ        -0.00194  -0.23994   0.03125  -0.15706  -0.24805
  58        4XY         0.00902  -0.43631  -0.25348  -0.06033  -0.57967
  59        4XZ        -0.17880   0.02074  -0.00091  -0.00725  -0.00666
  60        4YZ        -0.10729  -0.01153   0.00365   0.00104   0.01080
                          56        57        58        59        60
                           V         V         V         V         V
     Eigenvalues --     3.05233   3.73823   4.14115   4.39734   4.60517
   1 1   F  1S          0.01541  -0.15572  -0.30843  -0.19688  -0.63762
   2        2S          0.19207  -0.37481  -0.90351  -0.89487  -2.45753
   3        2PX        -0.02356  -0.00584  -0.19724  -0.09062  -0.24386
   4        2PY        -0.06220  -0.04512  -0.02640   0.04592  -0.20792
   5        2PZ        -0.00065   0.00221  -0.00151   0.00101  -0.00641
   6        3S         -0.55340   1.91040   3.90967   3.20332   9.53782
   7        3PX        -0.56365   0.14627   0.33977   1.11332   1.13434
   8        3PY        -0.07676   0.28587  -0.22040   0.21083   0.97877
   9        3PZ        -0.00879  -0.00580  -0.00048   0.00663   0.02438
  10        4XX        -0.66338  -0.58578  -1.30007  -0.24926  -2.36564
  11        4YY         0.37793  -0.64752  -1.36376  -0.81565  -2.47856
  12        4ZZ         0.23609  -0.54834  -1.21171  -0.95504  -2.71036
  13        4XY        -0.21933   0.09914  -0.17791   0.35495   0.29602
  14        4XZ        -0.01755  -0.00224  -0.00282   0.01175   0.00451
  15        4YZ        -0.00325   0.00278  -0.00710   0.00253   0.00591
  16 2   C  1S          0.02577  -0.01052   0.30203  -0.34322  -0.07781
  17        2S         -0.00912  -0.12793  -1.77129   1.85039   0.27975
  18        2PX        -0.74813   0.00134  -0.04001  -0.05115   0.41374
  19        2PY         0.18509   0.02971   0.16326   0.20428   0.07509
  20        2PZ         0.00007   0.00166  -0.00653   0.01629   0.00423
  21        3S         -0.18271  -2.77868  -0.46586  -1.25373  -0.43260
  22        3PX        -0.01276  -0.00999  -0.12670  -0.65413   2.87637
  23        3PY        -0.05214  -1.19832   1.66074   1.32887   0.55882
  24        3PZ         0.00276   0.03234   0.00767   0.02379   0.00840
  25        4XX        -0.33663  -0.06430   1.53001  -1.87605  -0.37191
  26        4YY         0.40443   0.12284   1.28279  -1.86661  -0.38346
  27        4ZZ         0.07738   0.17945   1.07857  -0.91565  -0.17329
  28        4XY         1.30241   0.00235   0.02460  -0.03915   0.04971
  29        4XZ        -0.00114  -0.00028   0.00087   0.00285  -0.01205
  30        4YZ         0.00057   0.00023  -0.00412  -0.00540  -0.00133
  31 3   O  1S          0.00116  -0.49606   0.19458   0.11548   0.03512
  32        2S         -0.06216  -0.22287   0.36465   0.19644   0.07336
  33        2PX        -0.04885  -0.00163  -0.00331  -0.01245   0.08095
  34        2PY         0.11993   0.22775   0.00108  -0.33195  -0.07772
  35        2PZ        -0.00225  -0.00218   0.00266   0.00740   0.00213
  36        3S          0.00625   5.61988  -3.06429  -1.30427  -0.50282
  37        3PX        -0.28761   0.00974   0.02139   0.18401  -0.83643
  38        3PY         0.10240  -1.25576   0.99344  -0.07981   0.02110
  39        3PZ        -0.00249   0.01079  -0.02309  -0.00986  -0.00508
  40        4XX         0.06517  -1.73342   0.63937   0.32563   0.09646
  41        4YY        -0.21038  -1.43270   0.25593   0.73567   0.19378
  42        4ZZ         0.04708  -1.67441   0.78678   0.38719   0.11831
  43        4XY         0.66113  -0.00114   0.00092  -0.06079   0.23930
  44        4XZ        -0.00975   0.00006   0.00015   0.00207  -0.00867
  45        4YZ         0.00708  -0.00224   0.00927  -0.00755  -0.00102
  46 4   F  1S         -0.03004  -0.16465  -0.36056  -0.44393   0.42542
  47        2S         -0.39302  -0.39595  -1.03935  -1.79090   1.55703
  48        2PX        -0.00977   0.01194   0.19691   0.21062  -0.14966
  49        2PY         0.00691  -0.04390  -0.02499  -0.05506   0.18784
  50        2PZ         0.00075   0.00195  -0.00158  -0.00209   0.00571
  51        3S          1.01763   2.01079   4.56324   6.68428  -6.20432
  52        3PX        -0.71146  -0.17259  -0.40260  -1.42761   0.45138
  53        3PY         0.33521   0.27023  -0.14745   0.50953  -0.74371
  54        3PZ         0.00994  -0.00494   0.00113   0.01460  -0.01812
  55        4XX         0.56990  -0.60391  -1.50579  -1.20749   1.77649
  56        4YY        -0.26775  -0.69662  -1.53808  -1.81405   1.61667
  57        4ZZ        -0.38745  -0.58381  -1.42616  -1.99604   1.75950
  58        4XY        -0.48502  -0.09717   0.16004  -0.40411   0.11731
  59        4XZ        -0.02007   0.00179   0.00275  -0.01149  -0.00074
  60        4YZ         0.00841   0.00292  -0.00623   0.00381  -0.00501
     Density Matrix:
                           1         2         3         4         5
   1 1   F  1S          2.08545
   2        2S         -0.21457   0.56784
   3        2PX         0.03168  -0.05642   0.69160
   4        2PY         0.01530  -0.02183  -0.10014   0.85385
   5        2PZ         0.00062  -0.00067  -0.00351  -0.00187   0.85808
   6        3S         -0.22624   0.56813  -0.15589  -0.07737  -0.00466
   7        3PX         0.01936  -0.03971   0.41980  -0.08197  -0.00321
   8        3PY         0.00975  -0.01667  -0.08156   0.54415  -0.00154
   9        3PZ         0.00038  -0.00043  -0.00282  -0.00144   0.57859
  10        4XX        -0.02278   0.01434   0.03649  -0.00562  -0.00004
  11        4YY        -0.02012   0.00914  -0.00559   0.02393   0.00015
  12        4ZZ        -0.01984   0.00866  -0.00055   0.00235   0.00103
  13        4XY        -0.00227   0.00443   0.00750   0.02396  -0.00009
  14        4XZ        -0.00005   0.00012   0.00021  -0.00014   0.03205
  15        4YZ        -0.00003   0.00007  -0.00014   0.00040   0.01586
  16 2   C  1S          0.00487  -0.01171  -0.07969  -0.03768  -0.00132
  17        2S          0.00212   0.00240   0.18264   0.08756   0.00326
  18        2PX         0.01364  -0.04467  -0.21848  -0.16693  -0.00415
  19        2PY         0.01072  -0.03473  -0.20747  -0.07273  -0.00300
  20        2PZ         0.00015  -0.00076  -0.00278  -0.00133   0.10973
  21        3S          0.01302  -0.02912   0.06827   0.06690  -0.00173
  22        3PX        -0.00672   0.01511   0.05518  -0.02636  -0.00344
  23        3PY        -0.00460   0.00941  -0.06479   0.13259  -0.00343
  24        3PZ        -0.00004  -0.00005  -0.00041  -0.00045   0.06514
  25        4XX        -0.00421   0.01139  -0.00412   0.03575   0.00042
  26        4YY         0.00245  -0.00457   0.00244  -0.03267  -0.00022
  27        4ZZ         0.00285  -0.00685  -0.01096  -0.00628  -0.00054
  28        4XY        -0.00832   0.01922   0.04427   0.00966   0.00081
  29        4XZ        -0.00014   0.00030   0.00074   0.00061  -0.03112
  30        4YZ        -0.00009   0.00023   0.00067   0.00017  -0.02665
  31 3   O  1S         -0.00082   0.00241   0.00126   0.01758  -0.00029
  32        2S          0.00179  -0.00446  -0.00833  -0.02604  -0.00012
  33        2PX        -0.02034   0.03470   0.04965   0.11134   0.00115
  34        2PY        -0.00943   0.02490   0.04144   0.08638  -0.00133
  35        2PZ        -0.00002  -0.00030  -0.00010  -0.00048  -0.14404
  36        3S         -0.00242   0.00534   0.04972  -0.14661   0.00545
  37        3PX        -0.01251   0.02066   0.02918   0.08139   0.00207
  38        3PY        -0.00345   0.00986   0.00282   0.08389  -0.00299
  39        3PZ        -0.00002  -0.00015   0.00072  -0.00109  -0.12316
  40        4XX        -0.00025   0.00054  -0.00368   0.00962  -0.00029
  41        4YY        -0.00030   0.00012  -0.00010   0.00482  -0.00006
  42        4ZZ        -0.00001   0.00047  -0.00040   0.00541  -0.00045
  43        4XY         0.00034  -0.00022   0.00415  -0.00111  -0.00012
  44        4XZ        -0.00001  -0.00001  -0.00008   0.00008  -0.00240
  45        4YZ        -0.00000   0.00004   0.00008   0.00007   0.00574
  46 4   F  1S         -0.00011   0.00157   0.01450  -0.00575  -0.00016
  47        2S          0.00168  -0.00347  -0.02412   0.00073  -0.00055
  48        2PX        -0.01502   0.02475   0.14533  -0.01738   0.00058
  49        2PY        -0.00629  -0.00097   0.01710   0.00056   0.00036
  50        2PZ        -0.00016  -0.00063  -0.00058   0.00039  -0.05742
  51        3S         -0.00354   0.00476  -0.08825   0.06417   0.00317
  52        3PX        -0.00740   0.01107   0.10354  -0.03025  -0.00005
  53        3PY        -0.00451  -0.00031   0.00894  -0.00181   0.00159
  54        3PZ        -0.00011  -0.00043  -0.00069   0.00074  -0.05064
  55        4XX         0.00023   0.00031   0.00863  -0.00206  -0.00040
  56        4YY         0.00018  -0.00036   0.00446  -0.00871  -0.00026
  57        4ZZ         0.00065  -0.00062   0.00382  -0.00481  -0.00045
  58        4XY         0.00028  -0.00005   0.00087  -0.00040  -0.00015
  59        4XZ         0.00001   0.00003   0.00006  -0.00006   0.00028
  60        4YZ        -0.00001  -0.00002  -0.00001  -0.00006  -0.00300
                           6         7         8         9        10
   6        3S          0.63237
   7        3PX        -0.08902   0.25760
   8        3PY        -0.04320  -0.06156   0.34855
   9        3PZ        -0.00290  -0.00241  -0.00112   0.39120
  10        4XX         0.00443   0.02124  -0.00512  -0.00006   0.00332
  11        4YY         0.00392  -0.00492   0.01471   0.00009   0.00048
  12        4ZZ         0.00642  -0.00094   0.00120   0.00069   0.00058
  13        4XY         0.00032   0.00384   0.01486  -0.00008   0.00073
  14        4XZ        -0.00008   0.00009  -0.00012   0.02130   0.00002
  15        4YZ        -0.00004  -0.00011   0.00024   0.01049  -0.00000
  16 2   C  1S          0.01434  -0.05081  -0.02269  -0.00071  -0.01006
  17        2S         -0.07041   0.10781   0.04790   0.00170   0.01987
  18        2PX         0.04104  -0.11537  -0.09111  -0.00240  -0.01139
  19        2PY         0.01893  -0.11681  -0.03840  -0.00171  -0.01628
  20        2PZ         0.00094  -0.00124  -0.00070   0.05620  -0.00041
  21        3S         -0.05922   0.03963   0.03885  -0.00153   0.00671
  22        3PX         0.04525   0.04201  -0.01154  -0.00219   0.00048
  23        3PY         0.03043  -0.03768   0.08583  -0.00222  -0.00585
  24        3PZ         0.00040  -0.00008  -0.00021   0.03585  -0.00009
  25        4XX         0.01217  -0.00307   0.02249   0.00029  -0.00012
  26        4YY        -0.00388   0.00198  -0.02038  -0.00016   0.00002
  27        4ZZ        -0.00257  -0.00642  -0.00353  -0.00031  -0.00139
  28        4XY         0.02259   0.02839   0.00677   0.00058   0.00157
  29        4XZ         0.00034   0.00045   0.00041  -0.02140   0.00002
  30        4YZ         0.00016   0.00044   0.00005  -0.01874   0.00005
  31 3   O  1S         -0.00219  -0.00124   0.00921  -0.00022  -0.00017
  32        2S          0.00676  -0.00078  -0.01111  -0.00004   0.00027
  33        2PX         0.15041   0.05698   0.09957   0.00148  -0.00563
  34        2PY         0.03373   0.02075   0.05557  -0.00125  -0.00004
  35        2PZ         0.00104   0.00081  -0.00058  -0.11609  -0.00011
  36        3S          0.00685   0.03221  -0.08814   0.00359   0.00434
  37        3PX         0.09428   0.03463   0.07042   0.00187  -0.00381
  38        3PY         0.01968   0.00012   0.05433  -0.00219  -0.00157
  39        3PZ         0.00054   0.00099  -0.00093  -0.09465  -0.00001
  40        4XX         0.00174  -0.00225   0.00613  -0.00019  -0.00038
  41        4YY        -0.00170   0.00011   0.00283  -0.00001   0.00035
  42        4ZZ         0.00070  -0.00030   0.00340  -0.00033  -0.00008
  43        4XY        -0.00715   0.00100  -0.00229  -0.00013   0.00055
  44        4XZ         0.00011  -0.00003   0.00008  -0.00166  -0.00001
  45        4YZ        -0.00005  -0.00001   0.00006   0.00520   0.00001
  46 4   F  1S         -0.00355   0.00686  -0.00417  -0.00011   0.00022
  47        2S          0.00387  -0.01045   0.00072  -0.00037   0.00044
  48        2PX         0.09407   0.10246  -0.00976   0.00066  -0.00953
  49        2PY         0.07682   0.03112  -0.00170   0.00079  -0.00359
  50        2PZ         0.00345   0.00001   0.00173  -0.05216  -0.00044
  51        3S          0.00519  -0.05528   0.03873   0.00209  -0.00463
  52        3PX         0.06045   0.07384  -0.01748   0.00018  -0.00563
  53        3PY         0.04778   0.01807  -0.00328   0.00142  -0.00255
  54        3PZ         0.00229  -0.00022   0.00146  -0.04252  -0.00032
  55        4XX        -0.00511   0.00491  -0.00159  -0.00029   0.00169
  56        4YY         0.00386   0.00406  -0.00518  -0.00014   0.00005
  57        4ZZ         0.00028   0.00276  -0.00296  -0.00031   0.00019
  58        4XY        -0.00123  -0.00006  -0.00020  -0.00012  -0.00019
  59        4XZ        -0.00009   0.00002  -0.00009   0.00095   0.00001
  60        4YZ         0.00011   0.00003  -0.00001  -0.00244  -0.00001
                          11        12        13        14        15
  11        4YY         0.00141
  12        4ZZ         0.00054   0.00039
  13        4XY         0.00086   0.00017   0.00107
  14        4XZ         0.00000   0.00004   0.00000   0.00129
  15        4YZ         0.00002   0.00002   0.00001   0.00067   0.00037
  16 2   C  1S         -0.00202   0.00058  -0.00674  -0.00019  -0.00011
  17        2S          0.00550   0.00106   0.01231   0.00034   0.00020
  18        2PX        -0.01066  -0.00328  -0.00912  -0.00027  -0.00021
  19        2PY         0.00055  -0.00253  -0.00050  -0.00023   0.00000
  20        2PZ        -0.00025   0.00006  -0.00018   0.00959   0.00628
  21        3S          0.00212  -0.00005   0.00525   0.00008   0.00010
  22        3PX        -0.00410  -0.00142  -0.00019  -0.00011  -0.00010
  23        3PY         0.00197  -0.00089   0.00297  -0.00013   0.00003
  24        3PZ        -0.00009   0.00004  -0.00002   0.00485   0.00295
  25        4XX         0.00054   0.00013   0.00060   0.00001   0.00001
  26        4YY        -0.00061  -0.00005  -0.00084  -0.00001  -0.00001
  27        4ZZ        -0.00045  -0.00018  -0.00079  -0.00004  -0.00002
  28        4XY        -0.00036  -0.00009   0.00100   0.00005   0.00002
  29        4XZ         0.00002  -0.00004   0.00004  -0.00110  -0.00065
  30        4YZ        -0.00001  -0.00001  -0.00000  -0.00067  -0.00010
  31 3   O  1S         -0.00009   0.00026  -0.00005  -0.00001   0.00000
  32        2S          0.00003  -0.00045   0.00035  -0.00002  -0.00001
  33        2PX        -0.00888  -0.00421   0.00276  -0.00002   0.00005
  34        2PY        -0.00270   0.00104  -0.00522   0.00005   0.00001
  35        2PZ        -0.00018  -0.00012  -0.00003   0.00119   0.00367
  36        3S         -0.00313   0.00076  -0.00526   0.00019  -0.00003
  37        3PX        -0.00538  -0.00265   0.00199   0.00003   0.00006
  38        3PY        -0.00071   0.00019  -0.00155  -0.00005   0.00001
  39        3PZ        -0.00013  -0.00009  -0.00006  -0.00047   0.00186
  40        4XX         0.00009  -0.00004   0.00013  -0.00001  -0.00000
  41        4YY         0.00045  -0.00005   0.00082  -0.00001   0.00000
  42        4ZZ         0.00005  -0.00001   0.00008  -0.00001   0.00000
  43        4XY         0.00061   0.00025   0.00010   0.00000  -0.00000
  44        4XZ        -0.00001  -0.00001   0.00000  -0.00008  -0.00005
  45        4YZ         0.00001   0.00001  -0.00000  -0.00023  -0.00031
  46 4   F  1S          0.00007   0.00065  -0.00030  -0.00001  -0.00001
  47        2S         -0.00017  -0.00048   0.00010  -0.00002  -0.00002
  48        2PX        -0.00455  -0.00403   0.00068   0.00005   0.00001
  49        2PY        -0.01039  -0.00578   0.00030   0.00006  -0.00006
  50        2PZ        -0.00028  -0.00049   0.00014  -0.00011  -0.00313
  51        3S          0.00406   0.00040   0.00067   0.00009   0.00012
  52        3PX        -0.00426  -0.00293  -0.00009   0.00001  -0.00003
  53        3PY        -0.00639  -0.00363   0.00009   0.00009  -0.00002
  54        3PZ        -0.00016  -0.00034   0.00011  -0.00076  -0.00255
  55        4XX         0.00006   0.00019   0.00028  -0.00001  -0.00001
  56        4YY        -0.00072  -0.00028  -0.00014  -0.00001  -0.00001
  57        4ZZ        -0.00029  -0.00008  -0.00009  -0.00001  -0.00001
  58        4XY         0.00019   0.00013  -0.00018  -0.00001  -0.00000
  59        4XZ         0.00001   0.00001  -0.00001  -0.00015   0.00001
  60        4YZ        -0.00001  -0.00001   0.00000  -0.00001  -0.00003
                          16        17        18        19        20
  16 2   C  1S          2.04571
  17        2S         -0.07619   0.39094
  18        2PX         0.00001  -0.00037   0.31670
  19        2PY        -0.02504   0.05992   0.00177   0.40760
  20        2PZ        -0.00038   0.00071   0.00007  -0.00056   0.33175
  21        3S         -0.07069   0.15387   0.00638   0.00398   0.00389
  22        3PX        -0.00176   0.00323   0.03644  -0.00293  -0.00005
  23        3PY         0.00482  -0.00952  -0.00347   0.02051   0.00118
  24        3PZ        -0.00107   0.00232  -0.00002   0.00016   0.14789
  25        4XX        -0.01025  -0.01301  -0.00004  -0.03136   0.00003
  26        4YY        -0.01532  -0.00350  -0.00028   0.01642   0.00019
  27        4ZZ        -0.00898  -0.02255   0.00106  -0.00140  -0.00045
  28        4XY        -0.00023   0.00104  -0.01876  -0.00314  -0.00003
  29        4XZ        -0.00000   0.00001  -0.00060  -0.00003  -0.00093
  30        4YZ        -0.00000   0.00001  -0.00003  -0.00071   0.01546
  31 3   O  1S          0.01166  -0.01213   0.00038  -0.04235   0.00070
  32        2S         -0.02716   0.03166  -0.00105   0.09741  -0.00167
  33        2PX        -0.00193   0.00520   0.18026   0.00025  -0.00016
  34        2PY         0.11301  -0.28170   0.00281  -0.37621   0.00808
  35        2PZ        -0.00274   0.00618  -0.00010   0.00558   0.36495
  36        3S          0.01564  -0.07829  -0.00014  -0.02922  -0.00111
  37        3PX        -0.00073   0.00242   0.11356   0.00035  -0.00010
  38        3PY         0.05549  -0.13507   0.00194  -0.17635   0.00466
  39        3PZ        -0.00143   0.00313  -0.00006   0.00275   0.22532
  40        4XX         0.00165  -0.00377   0.00009  -0.00411   0.00004
  41        4YY        -0.01099   0.02653  -0.00036   0.02259  -0.00077
  42        4ZZ         0.00083  -0.00175   0.00002  -0.00426   0.00057
  43        4XY         0.00011  -0.00026  -0.01558  -0.00018   0.00001
  44        4XZ        -0.00000   0.00000   0.00024   0.00001   0.00005
  45        4YZ         0.00026  -0.00058   0.00001  -0.00056  -0.02542
  46 4   F  1S          0.00350   0.00366  -0.01077   0.00829   0.00011
  47        2S         -0.00939  -0.00112   0.03825  -0.02834  -0.00064
  48        2PX         0.07723  -0.17674  -0.23417   0.19458   0.00233
  49        2PY        -0.03147   0.07349   0.14745  -0.05873  -0.00097
  50        2PZ        -0.00124   0.00306   0.00400  -0.00271   0.10115
  51        3S          0.01784  -0.07219  -0.04638   0.01777   0.00087
  52        3PX         0.04983  -0.10630  -0.12809   0.11443   0.00104
  53        3PY        -0.01874   0.04026   0.08291  -0.03244  -0.00054
  54        3PZ        -0.00068   0.00162   0.00237  -0.00161   0.05296
  55        4XX        -0.01069   0.02085   0.01349  -0.01544  -0.00037
  56        4YY        -0.00175   0.00464   0.00938   0.00033  -0.00022
  57        4ZZ         0.00015   0.00141   0.00347  -0.00232   0.00004
  58        4XY         0.00598  -0.01105  -0.00861  -0.00018   0.00015
  59        4XZ         0.00018  -0.00033  -0.00027   0.00021  -0.00891
  60        4YZ        -0.00009   0.00017   0.00018   0.00001   0.00524
                          21        22        23        24        25
  21        3S          0.07649
  22        3PX        -0.00030   0.04504
  23        3PY         0.00850   0.00129   0.05769
  24        3PZ         0.00216   0.00006   0.00017   0.06729
  25        4XX        -0.00086  -0.00049   0.01129  -0.00006   0.00574
[...]
  42        4ZZ         0.00014  -0.00000   0.00092  -0.00000   0.00003
  43        4XY         0.00000   0.00134   0.00000   0.00000   0.00000
  44        4XZ        -0.00000   0.00000   0.00000   0.00000   0.00000
  45        4YZ         0.00000   0.00000   0.00000   0.00179  -0.00000
  46 4   F  1S          0.00044   0.00045   0.00014   0.00000  -0.00007
  47        2S         -0.00547  -0.00532  -0.00161   0.00000   0.00174
  48        2PX         0.00753  -0.00272   0.00537   0.00000   0.00025
  49        2PY         0.00315   0.00235   0.00757   0.00000   0.00398
  50        2PZ        -0.00000   0.00001   0.00000   0.00673   0.00000
  51        3S         -0.02492  -0.02479  -0.00748  -0.00000   0.00375
  52        3PX         0.01902  -0.00310   0.01020   0.00000   0.00038
  53        3PY         0.00785   0.00360   0.02479   0.00000   0.00633
  54        3PZ        -0.00001   0.00001   0.00001   0.01648   0.00000
  55        4XX         0.00258  -0.00011   0.00142   0.00000   0.00004
  56        4YY         0.00052   0.00161  -0.00029   0.00000   0.00009
  57        4ZZ         0.00006   0.00053   0.00011  -0.00000   0.00001
  58        4XY         0.00037   0.00002   0.00029   0.00000   0.00018
  59        4XZ         0.00000   0.00000   0.00000   0.00069   0.00000
  60        4YZ         0.00000   0.00000   0.00000   0.00020   0.00000
                          26        27        28        29        30
  26        4YY         0.00378
  27        4ZZ         0.00006   0.00168
  28        4XY        -0.00000   0.00000   0.00886
  29        4XZ         0.00000   0.00000  -0.00000   0.00207
  30        4YZ         0.00000   0.00000  -0.00000  -0.00000   0.00320
  31 3   O  1S         -0.00074   0.00000  -0.00000   0.00000  -0.00000
  32        2S          0.00850  -0.00047   0.00000  -0.00000   0.00000
  33        2PX         0.00000  -0.00000   0.00900   0.00000  -0.00000
  34        2PY         0.00329  -0.00074   0.00001  -0.00000   0.00001
  35        2PZ         0.00000   0.00000   0.00000   0.00000   0.00624
  36        3S          0.01418  -0.00127   0.00000  -0.00000   0.00000
  37        3PX         0.00000  -0.00000   0.00875   0.00000   0.00000
  38        3PY         0.00284  -0.00198   0.00000  -0.00000   0.00000
  39        3PZ         0.00000  -0.00000   0.00000   0.00000   0.00651
  40        4XX        -0.00024   0.00001   0.00000  -0.00000  -0.00000
  41        4YY        -0.00014  -0.00024   0.00000   0.00000   0.00000
  42        4ZZ        -0.00014   0.00002  -0.00000   0.00000   0.00000
  43        4XY         0.00000   0.00000   0.00066   0.00000   0.00000
  44        4XZ        -0.00000  -0.00000   0.00000   0.00002   0.00000
  45        4YZ         0.00000   0.00000   0.00000   0.00000   0.00088
  46 4   F  1S          0.00002   0.00000  -0.00011  -0.00000  -0.00000
  47        2S         -0.00032  -0.00009   0.00207   0.00000   0.00000
  48        2PX        -0.00024  -0.00019   0.00660   0.00000   0.00000
  49        2PY        -0.00004  -0.00005   0.00015   0.00000   0.00000
  50        2PZ        -0.00000   0.00000   0.00000   0.00197   0.00082
  51        3S         -0.00096  -0.00030   0.00292   0.00000   0.00000
  52        3PX        -0.00065  -0.00140   0.00482   0.00000   0.00000
  53        3PY        -0.00112  -0.00036  -0.00020   0.00000   0.00000
  54        3PZ        -0.00000  -0.00000   0.00000   0.00419   0.00177
  55        4XX        -0.00008  -0.00016   0.00045   0.00000   0.00000
  56        4YY        -0.00002  -0.00002  -0.00001   0.00000  -0.00000
  57        4ZZ        -0.00000  -0.00001  -0.00001   0.00000   0.00000
  58        4XY        -0.00001  -0.00006   0.00003   0.00000  -0.00000
  59        4XZ        -0.00000   0.00000   0.00000   0.00023   0.00009
  60        4YZ        -0.00000   0.00000   0.00000   0.00008   0.00000
                          31        32        33        34        35
  31 3   O  1S          2.07944
  32        2S         -0.04318   0.51739
  33        2PX         0.00000   0.00000   0.81205
  34        2PY         0.00000   0.00000  -0.00000   0.57768
  35        2PZ         0.00000   0.00000  -0.00000  -0.00000   0.58188
  36        3S         -0.04174   0.45400   0.00000   0.00000   0.00000
  37        3PX         0.00000   0.00000   0.26397  -0.00000  -0.00000
  38        3PY         0.00000   0.00000  -0.00000   0.14633  -0.00000
  39        3PZ         0.00000   0.00000  -0.00000  -0.00000   0.19230
  40        4XX        -0.00037  -0.00562   0.00000   0.00000   0.00000
  41        4YY        -0.00035  -0.00540   0.00000   0.00000   0.00000
  42        4ZZ        -0.00044  -0.00324   0.00000   0.00000   0.00000
  43        4XY         0.00000   0.00000   0.00000   0.00000   0.00000
  44        4XZ        -0.00000  -0.00000   0.00000   0.00000   0.00000
  45        4YZ         0.00000  -0.00000   0.00000   0.00000   0.00000
  46 4   F  1S          0.00000   0.00000   0.00000   0.00000  -0.00000
  47        2S          0.00000  -0.00000  -0.00000  -0.00000  -0.00000
  48        2PX         0.00000  -0.00000  -0.00001  -0.00001  -0.00000
  49        2PY         0.00000  -0.00000  -0.00002  -0.00002  -0.00000
  50        2PZ         0.00000   0.00000   0.00000  -0.00000  -0.00000
  51        3S         -0.00000   0.00005  -0.00100  -0.00037   0.00000
  52        3PX        -0.00000  -0.00006  -0.00064  -0.00065   0.00000
  53        3PY         0.00002  -0.00029  -0.00209  -0.00152  -0.00000
  54        3PZ         0.00000   0.00000   0.00000  -0.00000  -0.00055
  55        4XX        -0.00000   0.00000   0.00000   0.00000  -0.00000
  56        4YY         0.00000  -0.00000   0.00004   0.00001  -0.00000
  57        4ZZ         0.00000  -0.00000   0.00000  -0.00000   0.00000
  58        4XY         0.00000   0.00000  -0.00001   0.00003  -0.00000
  59        4XZ         0.00000   0.00000   0.00000   0.00000   0.00000
  60        4YZ        -0.00000   0.00000   0.00000   0.00000   0.00000
                          36        37        38        39        40
  36        3S          0.79648
  37        3PX         0.00000   0.34138
  38        3PY         0.00000  -0.00000   0.15318
  39        3PZ         0.00000  -0.00000  -0.00000   0.25492
  40        4XX        -0.00914   0.00000   0.00000   0.00000   0.00060
  41        4YY        -0.01864   0.00000   0.00000   0.00000   0.00001
  42        4ZZ        -0.00464   0.00000   0.00000   0.00000   0.00013
  43        4XY        -0.00000   0.00000   0.00000   0.00000   0.00000
  44        4XZ         0.00000   0.00000   0.00000   0.00000  -0.00000
  45        4YZ        -0.00000   0.00000   0.00000   0.00000   0.00000
  46 4   F  1S         -0.00000   0.00004   0.00002  -0.00000  -0.00000
  47        2S          0.00005  -0.00053  -0.00038  -0.00000   0.00000
  48        2PX         0.00034  -0.00039  -0.00029   0.00000  -0.00000
  49        2PY        -0.00198  -0.00203  -0.00269  -0.00000   0.00001
  50        2PZ        -0.00000   0.00000  -0.00000  -0.00082   0.00000
  51        3S          0.00066  -0.00783  -0.00258   0.00000   0.00003
  52        3PX         0.00214  -0.00175  -0.00111   0.00000  -0.00004
  53        3PY        -0.01114  -0.01076  -0.00994  -0.00000   0.00037
  54        3PZ        -0.00000   0.00000  -0.00000  -0.00576   0.00000
  55        4XX         0.00010   0.00009   0.00012  -0.00000  -0.00000
  56        4YY        -0.00017   0.00051   0.00005  -0.00000   0.00000
  57        4ZZ         0.00000   0.00009  -0.00001  -0.00000  -0.00000
  58        4XY        -0.00021  -0.00007   0.00010  -0.00000   0.00000
  59        4XZ        -0.00000   0.00000  -0.00000  -0.00001   0.00000
  60        4YZ         0.00000   0.00000   0.00000   0.00006  -0.00000
                          41        42        43        44        45
  41        4YY         0.00333
  42        4ZZ        -0.00000   0.00028
  43        4XY         0.00000   0.00000   0.00198
  44        4XZ        -0.00000  -0.00000   0.00000   0.00001
  45        4YZ        -0.00000   0.00000   0.00000   0.00000   0.00247
  46 4   F  1S         -0.00000   0.00000   0.00000   0.00000  -0.00000
  47        2S          0.00000   0.00000  -0.00000  -0.00000  -0.00000
  48        2PX        -0.00000  -0.00000   0.00001   0.00000  -0.00000
  49        2PY         0.00001   0.00000  -0.00000  -0.00000  -0.00000
  50        2PZ         0.00000  -0.00000   0.00000   0.00000  -0.00000
  51        3S         -0.00006   0.00000  -0.00019  -0.00000   0.00000
  52        3PX        -0.00001  -0.00000   0.00002   0.00000  -0.00000
  53        3PY         0.00019   0.00009  -0.00014  -0.00000  -0.00000
  54        3PZ         0.00000   0.00000   0.00000   0.00002  -0.00010
  55        4XX         0.00001  -0.00000   0.00000   0.00000  -0.00000
  56        4YY         0.00001   0.00000   0.00002   0.00000  -0.00000
  57        4ZZ        -0.00000   0.00000   0.00000  -0.00000   0.00000
  58        4XY         0.00002   0.00000   0.00000  -0.00000  -0.00000
  59        4XZ         0.00000  -0.00000   0.00000   0.00000   0.00000
  60        4YZ        -0.00000   0.00000   0.00000   0.00000   0.00000
                          46        47        48        49        50
  46 4   F  1S          2.08591
  47        2S         -0.05239   0.56544
  48        2PX         0.00000   0.00000   0.67398
  49        2PY         0.00000   0.00000  -0.00000   0.86317
  50        2PZ         0.00000   0.00000  -0.00000   0.00000   0.85866
  51        3S         -0.03951   0.43884   0.00000   0.00000   0.00000
  52        3PX         0.00000   0.00000   0.20826  -0.00000  -0.00000
  53        3PY         0.00000   0.00000  -0.00000   0.27893   0.00000
  54        3PZ         0.00000   0.00000  -0.00000   0.00000   0.29157
  55        4XX        -0.00053   0.00659   0.00000   0.00000   0.00000
  56        4YY        -0.00045   0.00349   0.00000   0.00000   0.00000
  57        4ZZ        -0.00044   0.00334   0.00000   0.00000   0.00000
  58        4XY        -0.00000   0.00000   0.00000   0.00000   0.00000
  59        4XZ        -0.00000   0.00000   0.00000   0.00000   0.00000
  60        4YZ         0.00000  -0.00000   0.00000   0.00000   0.00000
                          51        52        53        54        55
  51        3S          0.64062
  52        3PX         0.00000   0.26046
  53        3PY         0.00000  -0.00000   0.36250
  54        3PZ         0.00000  -0.00000   0.00000   0.39763
  55        4XX         0.00382   0.00000   0.00000   0.00000   0.00341
  56        4YY         0.00245   0.00000   0.00000   0.00000   0.00018
  57        4ZZ         0.00391   0.00000   0.00000   0.00000   0.00019
  58        4XY         0.00000   0.00000   0.00000   0.00000   0.00000
  59        4XZ        -0.00000   0.00000   0.00000   0.00000   0.00000
  60        4YZ         0.00000   0.00000   0.00000   0.00000  -0.00000
                          56        57        58        59        60
  56        4YY         0.00112
  57        4ZZ         0.00016   0.00034
  58        4XY         0.00000   0.00000   0.00104
  59        4XZ         0.00000   0.00000  -0.00000   0.00122
  60        4YZ        -0.00000  -0.00000   0.00000   0.00000   0.00026
     Gross orbital populations:
                           1
   1 1   F  1S          1.99322
   2        2S          0.96374
   3        2PX         0.97787
   4        2PY         1.15813
   5        2PZ         1.16070
   6        3S          0.93588
   7        3PX         0.56840
   8        3PY         0.65446
   9        3PZ         0.70500
  10        4XX         0.02985
  11        4YY         0.01427
  12        4ZZ         0.01033
  13        4XY         0.00586
  14        4XZ         0.00390
  15        4YZ         0.00142
  16 2   C  1S          1.99158
  17        2S          0.71628
  18        2PX         0.57228
  19        2PY         0.68965
  20        2PZ         0.54746
  21        3S          0.16487
  22        3PX         0.09909
  23        3PY         0.07852
  24        3PZ         0.26905
  25        4XX         0.01112
  26        4YY         0.01708
  27        4ZZ        -0.02996
  28        4XY         0.06314
  29        4XZ         0.01567
  30        4YZ         0.02317
  31 3   O  1S          1.99275
  32        2S          0.92133
  33        2PX         1.11854
  34        2PY         0.88873
  35        2PZ         0.83204
  36        3S          1.00929
  37        3PX         0.65876
  38        3PY         0.40388
  39        3PZ         0.54898
  40        4XX        -0.01288
  41        4YY         0.00413
  42        4ZZ        -0.00778
  43        4XY         0.00718
  44        4XZ         0.00008
  45        4YZ         0.01110
  46 4   F  1S          1.99327
  47        2S          0.96207
  48        2PX         0.95451
  49        2PY         1.16814
  50        2PZ         1.16247
  51        3S          0.95108
  52        3PX         0.57308
  53        3PY         0.67162
  54        3PZ         0.71384
  55        4XX         0.03093
  56        4YY         0.01200
  57        4ZZ         0.00900
  58        4XY         0.00523
  59        4XZ         0.00357
  60        4YZ         0.00102
          Condensed to atoms (all electrons):
               1          2          3          4
     1  F    8.968361   0.302871  -0.060791  -0.027424
     2  C    0.302871   4.107717   0.528830   0.289583
     3  O   -0.060791   0.528830   7.971017  -0.062932
     4  F   -0.027424   0.289583  -0.062932   9.012631
 Mulliken charges:
               1
     1  F   -0.183017
     2  C    0.770999
     3  O   -0.376124
     4  F   -0.211858
 Sum of Mulliken charges =  -0.00000
 Mulliken charges with hydrogens summed into heavy atoms:
               1
     1  F   -0.183017
     2  C    0.770999
     3  O   -0.376124
     4  F   -0.211858
 Electronic spatial extent (au):  <R**2>=            205.4765
 Charge=             -0.0000 electrons
 Dipole moment (field-independent basis, Debye):
    X=             -0.1716    Y=             -1.6077    Z=              0.0385  Tot=              1.6173
 Quadrupole moment (field-independent basis, Debye-Ang):
   XX=            -20.4395   YY=            -22.5705   ZZ=            -18.4780
   XY=              0.1334   XZ=             -0.0012   YZ=             -0.0033
 Traceless Quadrupole moment (field-independent basis, Debye-Ang):
   XX=              0.0565   YY=             -2.0746   ZZ=              2.0180
   XY=              0.1334   XZ=             -0.0012   YZ=             -0.0033
 Octapole moment (field-independent basis, Debye-Ang**2):
  XXX=             -0.1460  YYY=             -8.5540  ZZZ=             -0.0413  XYY=              0.0349
  XXY=             -1.6723  XXZ=             -0.0376  XZZ=             -0.0211  YZZ=             -1.6777
  YYZ=             -0.0321  XYZ=             -0.0003
 Hexadecapole moment (field-independent basis, Debye-Ang**3):
 XXXX=            -86.7029 YYYY=            -90.7039 ZZZZ=            -11.8191 XXXY=              0.3341
 XXXZ=             -0.0018 YYYX=              0.3751 YYYZ=             -0.0109 ZZZX=              0.0003
 ZZZY=             -0.0031 XXYY=            -29.4724 XXZZ=            -16.6933 YYZZ=            -16.2690
 XXYZ=              0.0236 YYXZ=              0.0010 ZZXY=              0.0793
 N-N= 1.154292975488D+02 E-N=-9.721677990710D+02  KE= 3.103715217302D+02
 Orbital energies and kinetic energies (alpha):
                                 1                 2
   1         O               -24.793858         37.082616
   2         O               -24.777866         37.083453
   3         O               -19.192904         29.031333
   4         O               -10.461320         15.894217
   5         O                -1.321058          3.475477
   6         O                -1.267416          3.787264
   7         O                -1.070980          2.847074
   8         O                -0.690857          3.066402
   9         O                -0.621227          2.903184
  10         O                -0.562780          2.404369
  11         O                -0.536439          2.843654
  12         O                -0.482068          3.271842
  13         O                -0.474620          3.297083
  14         O                -0.455060          2.990345
  15         O                -0.379450          2.542889
  16         O                -0.333849          2.664558
  17         V                -0.041870          2.609566
  18         V                 0.037233          3.500469
  19         V                 0.248382          3.448962
  20         V                 0.305191          2.293951
  21         V                 0.464640          2.199584
  22         V                 0.473626          1.869684
  23         V                 0.477431          1.997920
  24         V                 0.575230          3.176528
  25         V                 0.838732          2.647625
  26         V                 0.943783          3.560065
  27         V                 0.950925          3.464216
  28         V                 1.041127          3.293136
  29         V                 1.093557          4.415589
  30         V                 1.117790          3.314038
  31         V                 1.222618          3.041021
  32         V                 1.264842          4.273146
  33         V                 1.278811          4.111488
  34         V                 1.335709          3.572662
  35         V                 1.356140          2.667688
  36         V                 1.370431          2.803249
  37         V                 1.588644          3.701755
  38         V                 1.636419          3.385215
  39         V                 1.748219          3.213636
  40         V                 1.761247          2.828118
  41         V                 1.776739          2.845003
  42         V                 1.795782          2.835271
  43         V                 1.802328          3.102587
  44         V                 1.843323          3.194706
  45         V                 1.895270          3.530652
  46         V                 1.917653          3.401874
  47         V                 1.947949          3.325615
  48         V                 2.069119          3.522277
  49         V                 2.111061          3.748104
  50         V                 2.523711          3.833422
  51         V                 2.582375          3.878231
  52         V                 2.687706          5.710060
  53         V                 2.733020          5.321165
  54         V                 2.945143          5.297522
  55         V                 3.010452          5.269147
  56         V                 3.052331          4.742821
  57         V                 3.738234         10.478633
  58         V                 4.141148         11.029164
  59         V                 4.397340         10.552499
  60         V                 4.605170         12.832950
 Total kinetic energy from orbitals= 3.103715217302D+02
 Unable to Open any file for archive entry.
 1\1\GINC-SPARTAN-BM162\SP\RB3LYP\6-31G(d)\C1F2O1\AKHALILOV\20-Mar-2025
 \0\\# B3LYP/6-31G(d) pop=full density=current\\CF2O Time step 5\\0,1\F
 ,0,1.166121,-0.580976,0.039561\C,0,0.017109,0.080884,-0.018244\O,0,0.0
 04039,1.313681,-0.088977\F,0,-1.180328,-0.576112,0.046873\\Version=ES6
 4L-G16RevC.01\State=1-A\HF=-312.9911889\RMSD=3.900e-09\Dipole=0.077818
 6,-0.6308757,0.0287912\Quadrupole=0.0448594,-1.5299332,1.4850739,-0.07
 26759,0.0089672,0.2151783\PG=C01 [X(C1F2O1)]\\@
 The archive entry for this job was punched.


 THE MEEK SHALL INHERIT THE EARTH.
 (THE REST OF US WILL ESCAPE TO THE STARS)
 Job cpu time:       0 days  0 hours  0 minutes  2.8 seconds.
 Elapsed time:       0 days  0 hours  0 minutes  0.9 seconds.
 File lengths (MBytes):  RWF=      6 Int=      0 D2E=      0 Chk=      1 Scr=      1
 Normal termination of Gaussian 16 at Thu Mar 20 00:07:26 2025.
