CF2O Time step 20                                                       
SP        RB3LYP                                                      6-31G(d)            
Number of atoms                            I                4
Info1-9                                    I   N=           9
          13          13           0           0           0         110
           1          18        -502
Full Title                                 C   N=           2
CF2O Time step 20       
Route                                      C   N=           4
# B3LYP/6-31G(d) pop=full density=current       
Charge                                     I                0
Multiplicity                               I                1
Number of electrons                        I               32
Number of alpha electrons                  I               16
Number of beta electrons                   I               16
Number of basis functions                  I               60
Number of independent functions            I               60
Number of point charges in /Mol/           I                0
Number of translation vectors              I                0
Atomic numbers                             I   N=           4
           9           6           8           9
Nuclear charges                            R   N=           4
  9.00000000E+00  6.00000000E+00  8.00000000E+00  9.00000000E+00
Current cartesian coordinates              R   N=          12
 -2.18548020E+00 -1.25323331E+00 -1.89605358E-02 -1.11573567E-01  1.00898340E-01
  7.98034968E-02 -1.34118340E-01  2.48569336E+00 -2.05743042E-02  2.37907888E+00
 -1.02353746E+00 -1.59535250E-02
Number of symbols in /Mol/                 I                0
Int Atom Types                             I   N=           4
           0           0           0           0
Force Field                                I                0
Atom Types                                 C   N=           4
                                                
MM charges                                 R   N=           4
  0.00000000E+00  0.00000000E+00  0.00000000E+00  0.00000000E+00
Integer atomic weights                     I   N=           4
          19          12          16          19
Real atomic weights                        R   N=           4
  1.89984032E+01  1.20000000E+01  1.59949146E+01  1.89984032E+01
Atom fragment info                         I   N=           4
           0           0           0           0
Atom residue num                           I   N=           4
           0           0           0           0
Nuclear spins                              I   N=           4
           1           0           0           1
Nuclear ZEff                               R   N=           4
 -6.75000000E+00 -3.60000000E+00 -5.60000000E+00 -6.75000000E+00
Nuclear ZNuc                               R   N=           4
  9.00000000E+00  6.00000000E+00  8.00000000E+00  9.00000000E+00
Nuclear QMom                               R   N=           4
  0.00000000E+00  0.00000000E+00  0.00000000E+00  0.00000000E+00
Nuclear GFac                               R   N=           4
  2.62886700E+00  0.00000000E+00  0.00000000E+00  2.62886700E+00
MicOpt                                     I   N=           4
          -1          -1          -1          -1
Number of residues                         I                0
Number of secondary structures             I                0
SymInf integers                            I   N=          26
           1           1           1           1           1           0
           0           0           0           0           0           0
           0           0           0           0           0           0
           0           0           0           0           0           0
           0           0
RotTr to input orientation                 R   N=          12
 -9.98589768E-01 -5.25455294E-02  7.57914002E-03 -5.29453329E-02  9.96187977E-01
 -6.93275237E-02 -3.90739674E-03 -6.96310359E-02 -9.97565161E-01  1.09982060E-03
  3.46227353E-02 -2.94897667E-03
Number of contracted shells                I               16
Number of primitive shells                 I               44
Pure/Cartesian d shells                    I                1
Pure/Cartesian f shells                    I                0
Highest angular momentum                   I                2
Largest degree of contraction              I                6
Shell types                                I   N=          16
           0          -1          -1           2           0          -1
          -1           2           0          -1          -1           2
           0          -1          -1           2
Number of primitives per shell             I   N=          16
           6           3           1           1           6           3
           1           1           6           3           1           1
           6           3           1           1
Shell to atom map                          I   N=          16
           1           1           1           1           2           2
           2           2           3           3           3           3
           4           4           4           4
Primitive exponents                        R   N=          44
  7.00171309E+03  1.05136609E+03  2.39285690E+02  6.73974453E+01  2.15199573E+01
  7.40310130E+00  2.08479528E+01  4.80830834E+00  1.34406986E+00  3.58151393E-01
  8.00000000E-01  3.04752488E+03  4.57369518E+02  1.03948685E+02  2.92101553E+01
  9.28666296E+00  3.16392696E+00  7.86827235E+00  1.88128854E+00  5.44249258E-01
  1.68714478E-01  8.00000000E-01  5.48467166E+03  8.25234946E+02  1.88046958E+02
  5.29645000E+01  1.68975704E+01  5.79963534E+00  1.55396162E+01  3.59993359E+00
  1.01376175E+00  2.70005823E-01  8.00000000E-01  7.00171309E+03  1.05136609E+03
  2.39285690E+02  6.73974453E+01  2.15199573E+01  7.40310130E+00  2.08479528E+01
  4.80830834E+00  1.34406986E+00  3.58151393E-01  8.00000000E-01
Contraction coefficients                   R   N=          44
  1.81961690E-03  1.39160796E-02  6.84053245E-02  2.33185760E-01  4.71267439E-01
  3.56618546E-01 -1.08506975E-01 -1.46451658E-01  1.12868858E+00  1.00000000E+00
  1.00000000E+00  1.83473713E-03  1.40373228E-02  6.88426223E-02  2.32184443E-01
  4.67941348E-01  3.62311985E-01 -1.19332420E-01 -1.60854152E-01  1.14345644E+00
  1.00000000E+00  1.00000000E+00  1.83107443E-03  1.39501722E-02  6.84450781E-02
  2.32714336E-01  4.70192898E-01  3.58520853E-01 -1.10777550E-01 -1.48026263E-01
  1.13076702E+00  1.00000000E+00  1.00000000E+00  1.81961690E-03  1.39160796E-02
  6.84053245E-02  2.33185760E-01  4.71267439E-01  3.56618546E-01 -1.08506975E-01
 -1.46451658E-01  1.12868858E+00  1.00000000E+00  1.00000000E+00
P(S=P) Contraction coefficients            R   N=          44
  0.00000000E+00  0.00000000E+00  0.00000000E+00  0.00000000E+00  0.00000000E+00
  0.00000000E+00  7.16287242E-02  3.45912103E-01  7.22469956E-01  1.00000000E+00
  0.00000000E+00  0.00000000E+00  0.00000000E+00  0.00000000E+00  0.00000000E+00
  0.00000000E+00  0.00000000E+00  6.89990666E-02  3.16423961E-01  7.44308291E-01
  1.00000000E+00  0.00000000E+00  0.00000000E+00  0.00000000E+00  0.00000000E+00
  0.00000000E+00  0.00000000E+00  0.00000000E+00  7.08742682E-02  3.39752839E-01
  7.27158577E-01  1.00000000E+00  0.00000000E+00  0.00000000E+00  0.00000000E+00
  0.00000000E+00  0.00000000E+00  0.00000000E+00  0.00000000E+00  7.16287242E-02
  3.45912103E-01  7.22469956E-01  1.00000000E+00  0.00000000E+00
Coordinates of each shell                  R   N=          48
 -2.18548020E+00 -1.25323331E+00 -1.89605358E-02 -2.18548020E+00 -1.25323331E+00
 -1.89605358E-02 -2.18548020E+00 -1.25323331E+00 -1.89605358E-02 -2.18548020E+00
 -1.25323331E+00 -1.89605358E-02 -1.11573567E-01  1.00898340E-01  7.98034968E-02
 -1.11573567E-01  1.00898340E-01  7.98034968E-02 -1.11573567E-01  1.00898340E-01
  7.98034968E-02 -1.11573567E-01  1.00898340E-01  7.98034968E-02 -1.34118340E-01
  2.48569336E+00 -2.05743042E-02 -1.34118340E-01  2.48569336E+00 -2.05743042E-02
 -1.34118340E-01  2.48569336E+00 -2.05743042E-02 -1.34118340E-01  2.48569336E+00
 -2.05743042E-02  2.37907888E+00 -1.02353746E+00 -1.59535250E-02  2.37907888E+00
 -1.02353746E+00 -1.59535250E-02  2.37907888E+00 -1.02353746E+00 -1.59535250E-02
  2.37907888E+00 -1.02353746E+00 -1.59535250E-02
Num ILSW                                   I              100
ILSW                                       I   N=         100
           0           1           0           0           2           0
           0           0           0           0         402          -1
           5           0           0           0           0           0
           0           0           1           0           0           0
           1           0           0           0           0           0
           0           0      100000           0          -1           0
           0           0           0           0           0           0
           0           0           0           1           0           0
           0 -2000000000           1           0           0           0
           0           0           4          52           0           0
           0           0           5           0           0           0
           0           0           0           0           0           1
           0           0           0           0           0           0
           0           0           0           0           0           0
           0           0           0           0           0           0
           0           0           0           0           0           0
           0           0           0           0
Num RLSW                                   I               52
RLSW                                       R   N=          52
  8.00000000E-01  7.20000000E-01  1.00000000E+00  8.10000000E-01  2.00000000E-01
  0.00000000E+00  0.00000000E+00  1.00000000E+00  0.00000000E+00  0.00000000E+00
  0.00000000E+00  0.00000000E+00  1.00000000E+00  0.00000000E+00  0.00000000E+00
  0.00000000E+00  0.00000000E+00  1.00000000E+00  0.00000000E+00  0.00000000E+00
  0.00000000E+00  0.00000000E+00  1.00000000E+00  0.00000000E+00  0.00000000E+00
  0.00000000E+00  0.00000000E+00  1.00000000E+00  0.00000000E+00  0.00000000E+00
  0.00000000E+00  0.00000000E+00  1.00000000E+00  0.00000000E+00  0.00000000E+00
  0.00000000E+00  0.00000000E+00  0.00000000E+00  1.00000000E+00  1.00000000E+00
  0.00000000E+00  1.00000000E+00  0.00000000E+00  0.00000000E+00  0.00000000E+00
  0.00000000E+00  0.00000000E+00  0.00000000E+00  0.00000000E+00  0.00000000E+00
  0.00000000E+00  0.00000000E+00
MxBond                                     I                3
NBond                                      I   N=           4
           1           3           1           1
IBond                                      I   N=          12
           2           0           0           1           3           4
           2           0           0           2           0           0
RBond                                      R   N=          12
  1.00000000E+00  0.00000000E+00  0.00000000E+00  1.00000000E+00  2.00000000E+00
  1.00000000E+00  2.00000000E+00  0.00000000E+00  0.00000000E+00  1.00000000E+00
  0.00000000E+00  0.00000000E+00
Virial Ratio                               R      2.009019950600103E+00
SCF Energy                                 R     -3.129743253507165E+02
Total Energy                               R     -3.129743253507165E+02
RMS Density                                R      7.614329348705566E-09
Job Status                                 I                1
Nuclear derivative order                   I                0
External E-field                           R   N=          35
  0.00000000E+00  0.00000000E+00  0.00000000E+00  0.00000000E+00  0.00000000E+00
  0.00000000E+00  0.00000000E+00  0.00000000E+00  0.00000000E+00  0.00000000E+00
  0.00000000E+00  0.00000000E+00  0.00000000E+00  0.00000000E+00  0.00000000E+00
  0.00000000E+00  0.00000000E+00  0.00000000E+00  0.00000000E+00  0.00000000E+00
  0.00000000E+00  0.00000000E+00  0.00000000E+00  0.00000000E+00  0.00000000E+00
  0.00000000E+00  0.00000000E+00  0.00000000E+00  0.00000000E+00  0.00000000E+00
  0.00000000E+00  0.00000000E+00  0.00000000E+00  0.00000000E+00  0.00000000E+00
IOpCl                                      I                0
IROHF                                      I                0
Alpha Orbital Energies                     R   N=          60
 -2.48123148E+01 -2.47604102E+01 -1.92009617E+01 -1.04690999E+01 -1.33232424E+00
 -1.23564596E+00 -1.06090991E+00 -6.96476935E-01 -6.08543655E-01 -5.63977615E-01
 -5.40443366E-01 -4.69264432E-01 -4.68543638E-01 -4.47920561E-01 -3.77670227E-01
 -3.34272112E-01 -6.21008505E-02  6.98953037E-03  2.16002512E-01  2.91673204E-01
  4.68402965E-01  4.75797501E-01  4.83004008E-01  5.52228678E-01  8.40611658E-01
  9.38524808E-01  9.44229863E-01  1.04093472E+00  1.08364520E+00  1.11809890E+00
  1.22239972E+00  1.26003447E+00  1.26755753E+00  1.33424968E+00  1.35682837E+00
  1.37299295E+00  1.55519697E+00  1.61780772E+00  1.74218068E+00  1.75419994E+00
  1.77461102E+00  1.79328491E+00  1.80783202E+00  1.82524937E+00  1.86135420E+00
  1.91420827E+00  1.93260359E+00  2.01456114E+00  2.10125208E+00  2.44634919E+00
  2.56241285E+00  2.60824056E+00  2.69018146E+00  2.87852857E+00  2.98246371E+00
  3.03091463E+00  3.70361761E+00  4.09495615E+00  4.28452967E+00  4.60317213E+00
Alpha MO coefficients                      R   N=        3600
  9.92974727E-01  1.95017054E-02  7.26870352E-04  4.00107540E-04  4.02637236E-05
  1.56736317E-02 -3.51322572E-04 -1.93992345E-04 -1.29584853E-05 -8.42226496E-03
 -8.21061069E-03 -8.06667284E-03 -2.67492043E-04 -1.94334548E-05 -1.27603520E-05
  1.81778967E-05  4.41909567E-04 -5.89413506E-04 -3.47174877E-04 -3.62221633E-05
 -5.22436391E-04  8.20974502E-04  5.39208951E-04  1.42850411E-05  3.20979806E-04
  1.82359727E-04 -4.04730270E-05  1.73129947E-04  1.18183421E-05  6.35485470E-06
  2.08283008E-05  1.49288834E-04  1.81322542E-05  4.85259566E-06  6.67206302E-07
 -5.42700436E-04 -1.26375984E-04  2.34714168E-04 -1.36131162E-05  4.23583260E-05
 -6.48041943E-05  1.05133140E-04 -4.01075894E-05 -4.69661138E-06  4.57560665E-06
  3.12341883E-05  2.46560321E-04 -3.81082175E-05  2.66330488E-05  2.09299924E-06
 -7.50988188E-04  1.36787294E-04 -1.57960864E-04 -1.07251658E-05  8.77223951E-05
  1.66061232E-04  2.02317683E-04  2.34588846E-05  1.88429635E-06 -5.03572392E-06
  6.11079208E-05  3.19574846E-04  3.05540515E-05  3.38370752E-05  2.15111245E-06
 -9.94405913E-04 -1.79360591E-04 -2.79262900E-04 -1.74593733E-05  1.38681338E-04
  1.38616271E-04  2.76403815E-04 -9.25668189E-05 -5.70884071E-06 -1.37095035E-05
  1.99525081E-05 -3.75380091E-05  3.72349805E-04 -1.82525281E-04 -2.78874682E-05
 -2.72936108E-04 -7.58153580E-04  3.64815075E-04  2.46141340E-06  7.31586228E-04
  2.77335117E-04  6.41040420E-05 -2.45281240E-04 -1.84367932E-05  7.91557796E-06
  2.84274732E-05  1.88199022E-04 -4.51056961E-06 -9.57721002E-06  5.72191026E-07
 -6.49202521E-04  1.13230196E-04  3.08837647E-04 -1.43639878E-05  4.72089151E-05
 -4.91723512E-05  1.51694554E-04  8.24938051E-07  7.92589233E-06  8.95424524E-06
  9.93021077E-01  1.95787763E-02 -6.38960605E-04  2.03752340E-04  2.96493727E-05
  1.51869486E-02  2.66257787E-04 -8.24071251E-05 -7.36677406E-06 -8.31405693E-03
 -8.02132438E-03 -7.96106454E-03  1.85583770E-04  1.58114260E-05 -7.33842782E-06
  1.18024217E-05  7.82308514E-05  2.50075012E-05 -3.68827546E-05  4.49129396E-06
 -1.82659416E-04 -7.71141531E-05  1.87726258E-04 -1.71021722E-05  1.01623716E-04
 -5.59479135E-05  6.85286558E-05 -1.88543222E-05  2.79073059E-06  4.48454098E-06
  3.37733657E-05  6.47221021E-04  2.65392330E-05  1.15026507E-04 -5.27973028E-06
 -2.80527414E-03  2.19283207E-07 -2.06131174E-03  9.32754738E-05  1.86527798E-05
 -5.75786357E-04  3.87770031E-05 -1.66754026E-05 -1.00873074E-06  3.01007416E-05
  9.92847420E-01  2.58008389E-02 -9.79019600E-06 -1.10423572E-03  5.69244412E-05
  1.20662577E-02  2.89492813E-05 -1.10340526E-03  4.12422577E-05 -7.86712923E-03
 -7.53789198E-03 -7.88510514E-03 -1.09874078E-05  6.08413672E-07 -1.50134025E-05
  8.62443473E-06  6.87758846E-05 -1.56579750E-05 -2.65215767E-05  2.76680031E-06
 -1.05357560E-04  8.75865772E-05  1.48851061E-04 -1.37268587E-05  2.37964766E-05
 -3.70394153E-05  7.69227837E-05  3.44936584E-05  2.82690530E-06  3.82013041E-06
  4.52654688E-05  7.85121215E-04  1.06426602E-04  6.49264790E-05  7.92606471E-06
 -2.72628030E-03 -1.91135117E-03 -1.20933202E-03 -1.04076091E-04 -3.63486044E-04
  3.05320040E-04  7.06726066E-04 -7.06966990E-04 -6.75949181E-05 -4.13521813E-05
  9.93050114E-01  4.56816187E-02 -7.09885915E-04 -1.52129219E-03 -7.57403288E-05
 -3.93361756E-03 -6.47889272E-04 -1.32833657E-04 -3.38903035E-05 -7.72684374E-03
 -8.15893036E-03 -9.34759061E-03  4.48578204E-04  2.75331169E-05  2.37420407E-05
 -1.69247458E-04 -9.20497966E-05 -3.31444010E-05 -4.49868344E-05 -1.72206563E-06
  2.53533655E-04  1.54856489E-04  6.37428072E-04 -2.73206991E-05 -1.15743189E-04
 -9.95429359E-05 -3.85467367E-05  2.15336764E-05 -1.75789205E-06  1.33099591E-05
 -3.46693995E-05  1.02958255E-04 -1.13036282E-04  2.32130523E-05  4.18808715E-06
  1.67224321E-04  1.03195465E-03 -3.26775999E-04 -3.48777169E-05 -7.24470446E-04
  1.61019897E-05  1.87147084E-04  4.11016834E-04  4.44686314E-05 -1.80975291E-05
 -2.12075870E-01  4.81575892E-01  9.40928751E-02  5.78353844E-02  4.61701051E-03
  4.25110019E-01  4.60852111E-02  2.65037541E-02  2.15406465E-03  2.40805548E-02
  1.28810542E-02  9.08026912E-03  1.06921345E-02  9.08646800E-04  5.53655792E-04
 -8.00192760E-02  1.54897381E-01 -8.82670425E-02 -6.33368343E-02 -5.39992766E-03
  2.79490862E-02  7.01409919E-03 -1.30037595E-04  1.38524706E-03  8.78616567E-03
 -4.35575693E-03 -1.63917313E-02  1.95630039E-02  1.24458098E-03  8.85761847E-04
 -1.90677774E-02  4.22827016E-02 -5.17598998E-03 -2.58019755E-02  5.56575554E-04
  3.49047989E-02 -5.08836439E-03 -1.40477232E-02 -1.35536198E-04 -1.38570055E-03
  6.72617042E-03 -3.64248545E-04  2.53112841E-03 -1.60171468E-04 -1.15303979E-04
 -3.88093983E-02  8.63080715E-02 -2.24402921E-02  6.09953425E-03  6.01686680E-04
  7.77788778E-02 -1.92225373E-02  3.06803654E-03  1.32869980E-04  1.05643261E-02
  7.50936391E-04  6.06625544E-04 -3.08992164E-03 -2.94661550E-04  6.02613026E-05
  5.44225655E-02 -1.24051642E-01 -9.41682974E-03 -1.16955413E-02 -1.11125421E-03
 -1.16379449E-01  1.76472982E-03 -4.23864763E-03 -7.51434943E-04  5.70052863E-06
 -3.40904582E-03 -2.79628204E-03 -9.91430773E-05 -8.88775256E-05 -1.22902225E-04
 -4.20412174E-02  8.44154890E-02  1.11398042E-01 -5.23947700E-03 -2.33773183E-03
  2.15129286E-02 -4.85767555E-03 -4.58059002E-03  6.92454043E-04  3.47945011E-03
 -3.60833301E-03 -7.00168655E-03 -1.82054506E-02 -1.23888262E-03 -5.31176090E-05
 -2.04831073E-02  4.45716385E-02  9.75573322E-03 -2.32683843E-02  6.75779019E-04
  3.97650087E-02  7.55286960E-03 -1.03689237E-02  9.82352258E-05 -1.06653914E-03
  3.83929831E-03 -7.94582539E-04 -3.19571019E-03  1.43429760E-04 -1.69524812E-04
 -2.19101930E-01  4.91344819E-01 -7.20508665E-02  3.04700068E-02  2.97639746E-03
  4.69513413E-01 -4.40253783E-02  1.78569741E-02  1.86431639E-03  2.32928613E-02
  8.29911605E-03  6.79996676E-03 -8.15013950E-03 -8.81379602E-04  3.73478575E-04
  3.66006756E-02 -8.36674210E-02  1.68265057E-03  2.64170836E-02 -6.33300951E-04
 -8.63575227E-02  5.54540517E-03  2.11687304E-02 -4.27332450E-04 -4.08049824E-04
  2.46281338E-03 -1.79140998E-03  5.12859134E-03 -5.30508556E-05  2.05078052E-04
 -8.78604973E-02  1.91664776E-01 -3.20782383E-03  2.22285541E-01 -6.62953114E-03
  3.32236409E-02  2.98457493E-04 -1.10108787E-02  1.51896343E-03 -2.62150403E-02
  2.26625338E-02 -1.36078562E-02 -2.84298856E-03 -3.76744896E-05 -2.39799726E-03
 -1.95445668E-01  4.33503290E-01 -2.64354188E-04 -1.54392252E-01  6.58977481E-03
  4.01379651E-01 -1.14370594E-03 -5.70327626E-02  2.24011855E-03 -9.46779957E-03
  1.07684987E-02 -5.54595493E-03 -2.55992104E-06  3.34599544E-06 -9.93511339E-04
  4.62557014E-02 -1.03941082E-01 -4.43050644E-03  1.84937349E-02 -3.38175437E-04
 -1.12005643E-01 -4.22616214E-03  1.39494943E-02 -3.81538455E-04  6.52672671E-04
  4.30593392E-04 -1.40321653E-03 -3.50968677E-03  6.61026061E-06  1.11507894E-04
  8.13724561E-02 -1.69357514E-01  3.97929221E-01  2.03690797E-01  1.95495922E-02
 -2.92750612E-01  2.25926299E-01  1.11366175E-01  1.08599646E-02  2.42969276E-02
  4.18211520E-03 -4.39118731E-04  1.33448984E-02  1.45418943E-03  6.80149541E-04
 -1.22093216E-01  2.97159555E-01 -9.02524326E-02 -1.89553818E-01 -2.64520063E-03
  1.63543909E-01  6.76121318E-03 -2.18813511E-02  2.69351249E-03  4.10242541E-03
 -1.27805139E-02 -1.33853598E-02  1.14212517E-02  6.08030133E-04  1.19421522E-03
  5.65696805E-02 -1.25690742E-01 -1.64804295E-02 -5.22922926E-02  5.07576124E-04
 -1.64096241E-01 -1.24689971E-02 -3.00309357E-02 -1.54059483E-04  7.17248216E-04
  1.12166736E-02  1.59486338E-03  3.05113048E-03 -1.84146123E-04 -9.10891292E-05
  4.33451999E-02 -8.85638091E-02 -1.77227283E-01  3.10937529E-02  6.05055854E-03
 -1.56406988E-01 -1.08797885E-01  1.37644256E-02  3.14507920E-03  1.91865474E-02
  4.03386745E-04  1.24920303E-03 -3.80142996E-03 -6.50628895E-04  6.20921589E-05
  2.38052402E-02 -4.33744320E-02  1.08830268E-01  3.12939836E-01  1.75180595E-02
 -9.87071640E-02  5.07033851E-02  1.87470176E-01  1.08217763E-02 -2.35011039E-03
  1.35514025E-02  1.37400921E-03  9.84960729E-03  6.16082620E-04  1.03809951E-03
  3.86014636E-02 -9.28407351E-02 -3.42218675E-01  4.64640577E-02  4.01081422E-04
 -7.42968350E-02 -4.80842429E-02  3.77460320E-02 -3.51388564E-04  4.62867348E-03
 -5.85097615E-04  9.66724762E-04  1.67618077E-02  1.70038287E-03 -2.52629589E-04
 -1.46354858E-02  3.52504975E-02 -1.17562358E-01  2.87887216E-02 -6.66245628E-04
  3.15606173E-02 -6.93260969E-02  1.91544365E-02 -8.71274457E-04  1.11957690E-03
 -2.53614229E-03  3.04160901E-04  1.31560825E-02 -5.91707268E-04  6.72155542E-05
 -5.96223463E-02  1.14762541E-01  3.67507688E-01 -1.94377650E-01 -1.68555910E-02
  2.35010625E-01  2.15773096E-01 -1.18317561E-01 -1.01835007E-02 -2.23361879E-02
 -8.92561360E-03 -3.80130265E-03  1.05739126E-02  1.11638447E-03 -5.91416319E-04
 -3.17182091E-04 -1.14779409E-04 -2.38823427E-02 -1.59792313E-02  5.21961563E-01
  2.41907218E-03 -1.45884216E-02 -8.99482585E-03  3.34211725E-01 -1.82742055E-03
 -7.80411482E-04  1.71537415E-03 -8.89681815E-04  2.32958831E-02  1.33955500E-02
 -3.85202147E-03  9.34339910E-03  1.28730795E-03  3.55958206E-04  2.90932470E-01
  4.11309717E-03 -3.51177097E-03 -5.45986142E-03  1.44562973E-01  4.03575451E-04
  3.76568304E-04 -2.19407941E-03  3.66633442E-04 -1.32938976E-02 -8.79021586E-03
 -9.43781561E-04  8.46367709E-05  1.45205299E-03  7.70841034E-03  1.35285526E-01
  1.22327829E-02  2.23514393E-03  1.01006582E-04  6.17030059E-02 -7.27228224E-04
 -1.42481833E-03  3.65065702E-05 -2.50194809E-04 -6.58522655E-04 -1.20220156E-02
 -1.96689375E-04 -1.33896386E-03  6.53807747E-03 -8.62552622E-04  1.84030404E-01
  5.22107345E-03  3.17466841E-03  1.47157362E-03  1.12908471E-01 -1.33409655E-03
 -6.29349634E-04 -2.26050021E-04 -1.35896045E-04 -9.71360504E-03  2.87300938E-03
  5.33475960E-03 -5.28706962E-03  3.21099314E-01 -3.35956602E-01  8.80285789E-03
 -3.61214150E-02  1.95758657E-01 -2.17163143E-01  5.12729267E-03  1.80660422E-02
 -1.14377818E-02  1.17965307E-03 -8.73949900E-03  7.75185642E-04 -6.28739806E-04
  4.86733278E-02 -1.30816901E-01 -3.67226254E-02 -2.12121895E-01 -3.03486875E-04
 -1.06391862E-01  1.97851174E-02 -1.20269018E-01 -9.41905600E-04 -1.05547543E-02
  2.22546189E-02  2.83836092E-03  1.26699933E-02 -1.32900624E-04  9.90867242E-04
 -8.95815609E-02  1.84119431E-01 -1.21393645E-03  2.79719035E-01 -1.34817653E-02
  4.02615095E-01 -3.19289698E-03  1.10613782E-01 -4.18416953E-03 -8.41915564E-03
 -2.56068802E-02 -3.48543362E-03  1.63939370E-03 -1.64125294E-04  1.20368467E-03
 -5.48198422E-03  1.57683686E-02  1.93213308E-02 -1.94303202E-01 -6.59698287E-03
  2.90389411E-04  1.93855264E-02 -1.25409622E-01 -5.28272531E-03  2.20132385E-03
 -1.26287026E-03  1.66505746E-03  9.06935207E-03  3.63848626E-04 -4.53049191E-04
  8.21450545E-04  4.35701704E-03 -1.59611727E-01  2.30972964E-01 -2.37528021E-01
 -2.46922218E-02 -1.11087235E-01  1.50153276E-01 -1.70649681E-01 -3.62701441E-03
  9.26040257E-03  1.89887290E-03  2.31233695E-03 -7.06059654E-03 -4.32378592E-03
  1.77918595E-02 -5.07739225E-02  2.67691170E-02 -1.26902900E-01  8.22608516E-02
 -1.46489472E-02 -3.16369272E-02 -1.73109967E-02  5.29316829E-02  1.51350819E-02
 -7.20312647E-03  8.66037440E-04 -1.73299153E-02  2.00683859E-02  3.11164806E-03
 -3.38127006E-02  7.10134969E-02 -4.51714491E-02  2.00577871E-01  6.00406909E-02
  1.42601080E-01 -2.97226159E-02  1.03994451E-01  3.27153849E-02 -2.15092730E-04
 -1.28442744E-02  5.37465489E-04  1.40555924E-03  1.80618932E-03 -4.21381908E-03
  4.60325473E-03 -1.11534409E-02 -2.26921810E-01 -1.52368119E-01  4.15985723E-01
 -2.39522678E-03 -1.54218748E-01 -1.00921615E-01  2.85691556E-01  7.92052998E-03
 -6.56185245E-03 -7.52153463E-04  3.72788174E-03 -1.48461282E-02  5.46146901E-03
 -1.62167226E-03 -7.08954111E-03  1.88861635E-01 -2.40983448E-01 -2.28247655E-01
  4.05318805E-02  1.32567765E-01 -1.52090249E-01 -1.62389414E-01  2.88864037E-03
 -1.08494038E-02 -5.26257416E-03 -1.65768366E-03 -6.14691900E-03 -4.72014397E-03
 -2.17107690E-02  6.04500545E-02 -2.98888939E-02  1.37722632E-01  7.93072560E-02
  1.85608352E-02  4.86307569E-02  1.36163386E-02  5.24608163E-02 -1.74519959E-02
  8.45604392E-03 -1.81567392E-03  1.63076434E-02  1.87844214E-02  2.83800598E-03
  3.57766676E-02 -7.64695784E-02  3.81513689E-02 -2.09641064E-01  8.30693405E-02
 -1.44401862E-01  1.91092576E-02 -1.11386597E-01  4.60990405E-02 -5.01775495E-04
  1.28618186E-02 -3.58265087E-04 -7.08621605E-05  1.55893815E-03 -5.94249424E-03
 -4.56171480E-03  1.30885060E-02  2.70233743E-01  1.24313231E-01  3.76682216E-01
 -5.70395228E-03  1.84609735E-01  8.00514812E-02  2.57547652E-01 -8.87164794E-03
  6.94940246E-03  3.79629445E-03 -2.35743862E-03 -1.28225314E-02  5.59142146E-03
 -6.04762842E-03  3.25420934E-03  7.01871941E-02  1.70106708E-01  2.31146884E-03
  7.54941665E-02  5.46580658E-02  1.10565710E-01  2.83297493E-03 -5.04073372E-03
 -6.66043631E-03 -4.91681056E-03  2.13143142E-03  9.55717122E-05 -1.21116701E-04
  3.31002113E-02 -8.80342315E-02  2.08053074E-02 -1.66353348E-01 -2.79116248E-03
 -3.24979835E-02  5.10578086E-02  1.09624373E-01 -1.46074070E-03  3.23580835E-02
 -1.83485044E-02  1.06114604E-03  1.93320155E-02  7.16401493E-04 -4.26894359E-04
 -3.65508930E-02  8.79924602E-02  8.73230268E-02  3.00110889E-01 -2.21727606E-02
  8.02935048E-02  5.45963813E-02  1.86285577E-01 -1.63973469E-02  7.85394253E-03
 -1.49351561E-02  4.21180956E-03 -4.62226473E-03  1.80267076E-04  1.80020024E-03
  5.14549925E-04  4.47029538E-03  1.38907753E-01  5.23595321E-01  2.46275221E-02
 -8.12110562E-03  9.37036584E-02  3.44349085E-01  1.70637980E-02 -5.02441946E-03
  9.37989200E-03  2.33967023E-03 -1.03458197E-02 -5.45367911E-04  7.31359064E-04
 -2.97554485E-04  4.06067749E-04  5.68331535E-03  1.27568906E-02 -2.18387799E-01
  2.59815634E-03  5.65713458E-03  6.56543516E-03 -1.58766556E-01  1.98159603E-04
 -3.20014109E-04 -3.68578926E-04 -7.30118482E-05 -2.98327552E-03  1.27256673E-03
 -2.33761192E-03  3.47015208E-03 -1.23310714E-04 -5.51329401E-03  2.56924788E-01
  2.26787159E-02 -6.46333933E-04  1.48948297E-02  9.72343173E-02  7.93538928E-05
  4.75110674E-04 -9.39678899E-04  1.38877301E-04 -2.69162854E-03  3.69938499E-02
 -3.24573211E-04  2.50508342E-03  1.38046446E-03  4.21560152E-02  5.10466217E-01
 -1.05267193E-02  1.22166110E-03  3.13742211E-02  3.46928643E-01  1.01279104E-03
 -2.70765240E-03  3.31720050E-03 -1.33105449E-04 -5.27785250E-04 -3.10691420E-02
 -2.38823074E-04  2.57695835E-04 -8.23845483E-03  1.33833521E-02 -2.84452306E-01
  1.99356295E-03 -6.97397352E-03  7.32726294E-03 -2.04350317E-01  3.84222636E-04
 -2.78433855E-04 -5.20833522E-04  7.22522409E-05  4.89929100E-03  9.06230369E-04
 -1.04695480E-02  1.86584487E-02  2.87220545E-02  1.61055117E-01  2.78753516E-03
  8.44550260E-02  2.93363245E-02  1.22789148E-01  3.22370456E-03 -4.62769840E-03
 -2.09773511E-03 -2.12302826E-03  4.48741424E-03 -1.36851299E-04  2.79352837E-04
 -2.04149247E-03  6.92747464E-03  7.64418880E-02  4.97823409E-03 -9.64933937E-04
 -1.84235779E-02  1.14460587E-01 -5.67484307E-03  4.81813700E-04 -4.13834652E-03
  1.97208880E-03 -2.69433897E-04  4.10657253E-02 -3.52317722E-04  9.06259326E-05
 -9.99243971E-04  3.53476883E-03  6.17509010E-01 -9.15940558E-03  1.36985020E-03
  7.39886904E-03  4.03614143E-01 -8.14920744E-03  1.03589559E-03 -9.76358410E-04
  1.32958834E-03  6.05808473E-04 -2.67002964E-02  1.36043670E-03 -5.52539411E-05
  9.90682590E-03 -1.93416594E-02  8.11744500E-02 -2.14184208E-01 -2.29331810E-03
 -7.34162965E-02  7.31391379E-02 -1.54923174E-01 -3.03895870E-03 -1.38847326E-03
  3.10666380E-03  1.61135020E-03  5.51506302E-03  1.78605440E-04 -3.21522879E-04
  1.40112961E-02 -2.77590744E-02 -7.19090828E-02 -2.01335884E-02 -2.22473547E-01
 -1.10451850E-01 -7.69602087E-02 -2.90588118E-02 -1.85778772E-01  1.88444366E-03
  3.41059010E-04  5.85032524E-03 -1.82328626E-03  1.46840890E-02  6.87609568E-03
 -4.41398085E-02  8.26376129E-02  2.67492334E-02 -7.11313684E-02  5.97934386E-01
  3.48250164E-01  2.33798914E-03 -2.90062723E-02  4.17550680E-01 -1.06864409E-02
 -7.18701113E-03  8.76795682E-03 -1.19182487E-03  7.85716794E-04 -2.35441177E-02
  8.67013768E-03 -1.68607205E-02 -8.48623812E-03  3.62759010E-02 -3.99305959E-01
 -8.20190482E-02 -7.39251564E-03  5.31786488E-02 -3.74175136E-01  1.73859108E-03
 -2.00762966E-03  5.05675146E-03 -3.43681800E-04  4.96155511E-04 -4.50754315E-03
  1.40233284E-02 -2.95340990E-02  9.13690859E-02 -2.19643408E-02 -1.88934046E-01