 Entering Gaussian System, Link 0=g16
 Input=CF2O_1000K_step0020.gjf
 Output=CF2O_1000K_step0020.log
 Initial command:
 /apps/easybuild-2022/easybuild/software/Compiler/NVHPC/22.11-CUDA-11.7.0/Gaussian/g16c01-CUDA-11.7.0/g16/l1.exe "/tmp/Gau-264703.inp" -scrdir="/tmp/"
 Default is to use a total of   4 processors:
                                4 via shared-memory
                                1 via Linda
 Entering Link 1 = /apps/easybuild-2022/easybuild/software/Compiler/NVHPC/22.11-CUDA-11.7.0/Gaussian/g16c01-CUDA-11.7.0/g16/l1.exe PID=    264704.
  
 Copyright (c) 1988-2019, Gaussian, Inc.  All Rights Reserved.
  
 This is part of the Gaussian(R) 16 program.  It is based on
 the Gaussian(R) 09 system (copyright 2009, Gaussian, Inc.),
 the Gaussian(R) 03 system (copyright 2003, Gaussian, Inc.),
 the Gaussian(R) 98 system (copyright 1998, Gaussian, Inc.),
 the Gaussian(R) 94 system (copyright 1995, Gaussian, Inc.),
 the Gaussian 92(TM) system (copyright 1992, Gaussian, Inc.),
 the Gaussian 90(TM) system (copyright 1990, Gaussian, Inc.),
 the Gaussian 88(TM) system (copyright 1988, Gaussian, Inc.),
 the Gaussian 86(TM) system (copyright 1986, Carnegie Mellon
 University), and the Gaussian 82(TM) system (copyright 1983,
 Carnegie Mellon University). Gaussian is a federally registered
 trademark of Gaussian, Inc.
  
 This software contains proprietary and confidential information,
 including trade secrets, belonging to Gaussian, Inc.
  
 This software is provided under written license and may be
 used, copied, transmitted, or stored only in accord with that
 written license.
  
 The following legend is applicable only to US Government
 contracts under FAR:
  
                    RESTRICTED RIGHTS LEGEND
  
 Use, reproduction and disclosure by the US Government is
 subject to restrictions as set forth in subparagraphs (a)
 and (c) of the Commercial Computer Software - Restricted
 Rights clause in FAR 52.227-19.
  
 Gaussian, Inc.
 340 Quinnipiac St., Bldg. 40, Wallingford CT 06492
  
  
 ---------------------------------------------------------------
 Warning -- This program may not be used in any manner that
 competes with the business of Gaussian, Inc. or will provide
 assistance to any competitor of Gaussian, Inc.  The licensee
 of this program is prohibited from giving any competitor of
 Gaussian, Inc. access to this program.  By using this program,
 the user acknowledges that Gaussian, Inc. is engaged in the
 business of creating and licensing software in the field of
 computational chemistry and represents and warrants to the
 licensee that it is not a competitor of Gaussian, Inc. and that
 it will not use this program in any manner prohibited above.
 ---------------------------------------------------------------
  

 Cite this work as:
 Gaussian 16, Revision C.01,
 M. J. Frisch, G. W. Trucks, H. B. Schlegel, G. E. Scuseria, 
 M. A. Robb, J. R. Cheeseman, G. Scalmani, V. Barone, 
 G. A. Petersson, H. Nakatsuji, X. Li, M. Caricato, A. V. Marenich, 
 J. Bloino, B. G. Janesko, R. Gomperts, B. Mennucci, H. P. Hratchian, 
 J. V. Ortiz, A. F. Izmaylov, J. L. Sonnenberg, D. Williams-Young, 
 F. Ding, F. Lipparini, F. Egidi, J. Goings, B. Peng, A. Petrone, 
 T. Henderson, D. Ranasinghe, V. G. Zakrzewski, J. Gao, N. Rega, 
 G. Zheng, W. Liang, M. Hada, M. Ehara, K. Toyota, R. Fukuda, 
 J. Hasegawa, M. Ishida, T. Nakajima, Y. Honda, O. Kitao, H. Nakai, 
 T. Vreven, K. Throssell, J. A. Montgomery, Jr., J. E. Peralta, 
 F. Ogliaro, M. J. Bearpark, J. J. Heyd, E. N. Brothers, K. N. Kudin, 
 V. N. Staroverov, T. A. Keith, R. Kobayashi, J. Normand, 
 K. Raghavachari, A. P. Rendell, J. C. Burant, S. S. Iyengar, 
 J. Tomasi, M. Cossi, J. M. Millam, M. Klene, C. Adamo, R. Cammi, 
 J. W. Ochterski, R. L. Martin, K. Morokuma, O. Farkas, 
 J. B. Foresman, and D. J. Fox, Gaussian, Inc., Wallingford CT, 2019.
 
 ******************************************
 Gaussian 16:  ES64L-G16RevC.01  3-Jul-2019
                20-Mar-2025 
 ******************************************
 %chk=CF2O_1000K_step0020.chk
 %mem=8GB
 %nprocshared=4
 Will use up to    4 processors via shared memory.
 -----------------------------------------
 # B3LYP/6-31G(d) pop=full density=current
 -----------------------------------------
 1/30=1,38=1,172=1/1;
 2/12=2,17=6,18=5,40=1/2;
 3/5=1,6=6,7=1,11=2,25=1,30=1,74=-5/1,2,3;
 4//1;
 5/5=2,38=5/2;
 6/7=3,22=-1,28=1/1;
 99/5=1,9=1/99;
 -----------------
 CF2O Time step 20
 -----------------
 Symbolic Z-matrix:
 Charge =  0 Multiplicity = 1
 F                     1.19061  -0.58087   0.04566 
 C                     0.05655   0.07167  -0.04784 
 O                     0.00185   1.33317  -0.08243 
 F                    -1.22789  -0.58681   0.05395 
 
                          Input orientation:                          
 ---------------------------------------------------------------------
 Center     Atomic      Atomic             Coordinates (Angstroms)
 Number     Number       Type             X           Y           Z
 ---------------------------------------------------------------------
      1          9           0        1.190609   -0.580865    0.045660
      2          6           0        0.056549    0.071673   -0.047837
      3          8           0        0.001854    1.333167   -0.082429
      4          9           0       -1.227887   -0.586811    0.053953
 ---------------------------------------------------------------------
                    Distance matrix (angstroms):
                    1          2          3          4
     1  F    0.000000
     2  C    1.311732   0.000000
     3  O    2.256782   1.263153   0.000000
     4  F    2.418518   1.446976   2.284114   0.000000
 Stoichiometry    CF2O
 Framework group  C1[X(CF2O)]
 Deg. of freedom     6
 Full point group                 C1      NOp   1
 Largest Abelian subgroup         C1      NOp   1
 Largest concise Abelian subgroup C1      NOp   1
                         Standard orientation:                         
 ---------------------------------------------------------------------
 Center     Atomic      Atomic             Coordinates (Angstroms)
 Number     Number       Type             X           Y           Z
 ---------------------------------------------------------------------
      1          9           0       -1.156506   -0.663183   -0.010033
      2          6           0       -0.059042    0.053393    0.042230
      3          8           0       -0.070972    1.315372   -0.010887
      4          9           0        1.258954   -0.541633   -0.008442
 ---------------------------------------------------------------------
 Rotational constants (GHZ):          12.1363637           9.0778511           5.1961510
 Standard basis: 6-31G(d) (6D, 7F)
 There are    60 symmetry adapted cartesian basis functions of A   symmetry.
 There are    60 symmetry adapted basis functions of A   symmetry.
    60 basis functions,   112 primitive gaussians,    60 cartesian basis functions
    16 alpha electrons       16 beta electrons
       nuclear repulsion energy       112.9284410851 Hartrees.
 NAtoms=    4 NActive=    4 NUniq=    4 SFac= 1.00D+00 NAtFMM=   60 NAOKFM=F Big=F
 Integral buffers will be    131072 words long.
 Raffenetti 2 integral format.
 Two-electron integral symmetry is turned on.
 One-electron integrals computed using PRISM.
 NBasis=    60 RedAO= T EigKep=  4.39D-03  NBF=    60
 NBsUse=    60 1.00D-06 EigRej= -1.00D+00 NBFU=    60
 ExpMin= 1.69D-01 ExpMax= 7.00D+03 ExpMxC= 1.05D+03 IAcc=3 IRadAn=         5 AccDes= 0.00D+00
 Harris functional with IExCor=  402 and IRadAn=       5 diagonalized for initial guess.
 HarFok:  IExCor=  402 AccDes= 0.00D+00 IRadAn=         5 IDoV= 1 UseB2=F ITyADJ=14
 ICtDFT=  3500011 ScaDFX=  1.000000  1.000000  1.000000  1.000000
 FoFCou: FMM=F IPFlag=           0 FMFlag=      100000 FMFlg1=           0
         NFxFlg=           0 DoJE=T BraDBF=F KetDBF=T FulRan=T
         wScrn=  0.000000 ICntrl=       500 IOpCl=  0 I1Cent=   200000004 NGrid=           0
         NMat0=    1 NMatS0=      1 NMatT0=    0 NMatD0=    1 NMtDS0=    0 NMtDT0=    0
 Petite list used in FoFCou.
 Keep R1 ints in memory in canonical form, NReq=5215649.
 Requested convergence on RMS density matrix=1.00D-08 within 128 cycles.
 Requested convergence on MAX density matrix=1.00D-06.
 Requested convergence on             energy=1.00D-06.
 No special actions if energy rises.
 Integral accuracy reduced to 1.0D-05 until final iterations.
 Initial convergence to 1.0D-05 achieved.  Increase integral accuracy.
 SCF Done:  E(RB3LYP) =  -312.974325351     A.U. after   14 cycles
            NFock= 14  Conv=0.76D-08     -V/T= 2.0090

 **********************************************************************

            Population analysis using the SCF Density.

 **********************************************************************

 Orbital symmetries:
       Occupied  (A) (A) (A) (A) (A) (A) (A) (A) (A) (A) (A) (A)
                 (A) (A) (A) (A)
       Virtual   (A) (A) (A) (A) (A) (A) (A) (A) (A) (A) (A) (A)
                 (A) (A) (A) (A) (A) (A) (A) (A) (A) (A) (A) (A)
                 (A) (A) (A) (A) (A) (A) (A) (A) (A) (A) (A) (A)
                 (A) (A) (A) (A) (A) (A) (A) (A)
 The electronic state is 1-A.
 Alpha  occ. eigenvalues --  -24.81231 -24.76041 -19.20096 -10.46910  -1.33232
 Alpha  occ. eigenvalues --   -1.23565  -1.06091  -0.69648  -0.60854  -0.56398
 Alpha  occ. eigenvalues --   -0.54044  -0.46926  -0.46854  -0.44792  -0.37767
 Alpha  occ. eigenvalues --   -0.33427
 Alpha virt. eigenvalues --   -0.06210   0.00699   0.21600   0.29167   0.46840
 Alpha virt. eigenvalues --    0.47580   0.48300   0.55223   0.84061   0.93852
 Alpha virt. eigenvalues --    0.94423   1.04093   1.08365   1.11810   1.22240
 Alpha virt. eigenvalues --    1.26003   1.26756   1.33425   1.35683   1.37299
 Alpha virt. eigenvalues --    1.55520   1.61781   1.74218   1.75420   1.77461
 Alpha virt. eigenvalues --    1.79328   1.80783   1.82525   1.86135   1.91421
 Alpha virt. eigenvalues --    1.93260   2.01456   2.10125   2.44635   2.56241
 Alpha virt. eigenvalues --    2.60824   2.69018   2.87853   2.98246   3.03091
 Alpha virt. eigenvalues --    3.70362   4.09496   4.28453   4.60317
     Molecular Orbital Coefficients:
                           1         2         3         4         5
                           O         O         O         O         O
     Eigenvalues --   -24.81231 -24.76041 -19.20096 -10.46910  -1.33232
   1 1   F  1S          0.99297   0.00006   0.00001   0.00005  -0.21208
   2        2S          0.01950   0.00032   0.00008   0.00079   0.48158
   3        2PX         0.00073   0.00003   0.00003   0.00011   0.09409
   4        2PY         0.00040   0.00003  -0.00004   0.00006   0.05784
   5        2PZ         0.00004   0.00000   0.00000   0.00001   0.00462
   6        3S          0.01567  -0.00099  -0.00018  -0.00273   0.42511
   7        3PX        -0.00035  -0.00018  -0.00008  -0.00191   0.04609
   8        3PY        -0.00019  -0.00028   0.00019  -0.00121   0.02650
   9        3PZ        -0.00001  -0.00002  -0.00002  -0.00010   0.00215
  10        4XX        -0.00842   0.00014   0.00010  -0.00036   0.02408
  11        4YY        -0.00821   0.00014  -0.00006   0.00031   0.01288
  12        4ZZ        -0.00807   0.00028   0.00007   0.00071   0.00908
  13        4XY        -0.00027  -0.00009  -0.00002  -0.00071   0.01069
  14        4XZ        -0.00002  -0.00001   0.00000  -0.00007   0.00091
  15        4YZ        -0.00001  -0.00001   0.00000  -0.00004   0.00055
  16 2   C  1S          0.00002   0.00002   0.00003   0.99305  -0.08002
  17        2S          0.00044  -0.00004   0.00065   0.04568   0.15490
  18        2PX        -0.00059   0.00037   0.00003  -0.00071  -0.08827
  19        2PY        -0.00035  -0.00018   0.00012  -0.00152  -0.06334
  20        2PZ        -0.00004  -0.00003  -0.00001  -0.00008  -0.00540
  21        3S         -0.00052  -0.00027  -0.00281  -0.00393   0.02795
  22        3PX         0.00082  -0.00076   0.00000  -0.00065   0.00701
  23        3PY         0.00054   0.00036  -0.00206  -0.00013  -0.00013
  24        3PZ         0.00001   0.00000   0.00009  -0.00003   0.00139
  25        4XX         0.00032   0.00073   0.00002  -0.00773   0.00879
  26        4YY         0.00018   0.00028  -0.00058  -0.00816  -0.00436
  27        4ZZ        -0.00004   0.00006   0.00004  -0.00935  -0.01639
  28        4XY         0.00017  -0.00025  -0.00002   0.00045   0.01956
  29        4XZ         0.00001  -0.00002  -0.00000   0.00003   0.00124
  30        4YZ         0.00001   0.00001   0.00003   0.00002   0.00089
  31 3   O  1S          0.00002   0.00003   0.99285  -0.00017  -0.01907
  32        2S          0.00015   0.00019   0.02580  -0.00009   0.04228
  33        2PX         0.00002  -0.00000  -0.00001  -0.00003  -0.00518
  34        2PY         0.00000  -0.00001  -0.00110  -0.00004  -0.02580
  35        2PZ         0.00000   0.00000   0.00006  -0.00000   0.00056
  36        3S         -0.00054  -0.00065   0.01207   0.00025   0.03490
  37        3PX        -0.00013   0.00011   0.00003   0.00015  -0.00509
  38        3PY         0.00023   0.00031  -0.00110   0.00064  -0.01405
  39        3PZ        -0.00001  -0.00001   0.00004  -0.00003  -0.00014
  40        4XX         0.00004   0.00005  -0.00787  -0.00012  -0.00139
  41        4YY        -0.00006  -0.00005  -0.00754  -0.00010   0.00673
  42        4ZZ         0.00011   0.00015  -0.00789  -0.00004  -0.00036
  43        4XY        -0.00004   0.00000  -0.00001   0.00002   0.00253
  44        4XZ        -0.00000   0.00001   0.00000  -0.00000  -0.00016
  45        4YZ         0.00000   0.00001  -0.00002   0.00001  -0.00012
  46 4   F  1S          0.00003   0.99302   0.00001  -0.00003  -0.03881
  47        2S          0.00025   0.01958   0.00007   0.00010   0.08631
  48        2PX        -0.00004  -0.00064  -0.00002  -0.00011  -0.02244
  49        2PY         0.00003   0.00020  -0.00003   0.00002   0.00610
  50        2PZ         0.00000   0.00003   0.00000   0.00000   0.00060
  51        3S         -0.00075   0.01519  -0.00011   0.00017   0.07778
  52        3PX         0.00014   0.00027   0.00009   0.00103  -0.01922
  53        3PY        -0.00016  -0.00008   0.00015  -0.00033   0.00307
  54        3PZ        -0.00001  -0.00001  -0.00001  -0.00003   0.00013
  55        4XX         0.00009  -0.00831   0.00002  -0.00072   0.01056
  56        4YY         0.00017  -0.00802  -0.00004   0.00002   0.00075
  57        4ZZ         0.00020  -0.00796   0.00008   0.00019   0.00061
  58        4XY         0.00002   0.00019   0.00003   0.00041  -0.00309
  59        4XZ         0.00000   0.00002   0.00000   0.00004  -0.00029
  60        4YZ        -0.00001  -0.00001   0.00000  -0.00002   0.00006
                           6         7         8         9        10
                           O         O         O         O         O
     Eigenvalues --    -1.23565  -1.06091  -0.69648  -0.60854  -0.56398
   1 1   F  1S          0.05442   0.03660   0.08137   0.02381  -0.00032
   2        2S         -0.12405  -0.08367  -0.16936  -0.04337  -0.00011
   3        2PX        -0.00942   0.00168   0.39793   0.10883  -0.02388
   4        2PY        -0.01170   0.02642   0.20369   0.31294  -0.01598
   5        2PZ        -0.00111  -0.00063   0.01955   0.01752   0.52196
   6        3S         -0.11638  -0.08636  -0.29275  -0.09871   0.00242
   7        3PX         0.00176   0.00555   0.22593   0.05070  -0.01459
   8        3PY        -0.00424   0.02117   0.11137   0.18747  -0.00899
   9        3PZ        -0.00075  -0.00043   0.01086   0.01082   0.33421
  10        4XX         0.00001  -0.00041   0.02430  -0.00235  -0.00183
  11        4YY        -0.00341   0.00246   0.00418   0.01355  -0.00078
  12        4ZZ        -0.00280  -0.00179  -0.00044   0.00137   0.00172
  13        4XY        -0.00010   0.00513   0.01334   0.00985  -0.00089
  14        4XZ        -0.00009  -0.00005   0.00145   0.00062   0.02330
  15        4YZ        -0.00012   0.00021   0.00068   0.00104   0.01340
  16 2   C  1S         -0.04204  -0.08786  -0.12209   0.03860  -0.00385
  17        2S          0.08442   0.19166   0.29716  -0.09284   0.00934
  18        2PX         0.11140  -0.00321  -0.09025  -0.34222   0.00129
  19        2PY        -0.00524   0.22229  -0.18955   0.04646   0.00036
  20        2PZ        -0.00234  -0.00663  -0.00265   0.00040   0.29093
  21        3S          0.02151   0.03322   0.16354  -0.07430   0.00411
  22        3PX        -0.00486   0.00030   0.00676  -0.04808  -0.00351
  23        3PY        -0.00458  -0.01101  -0.02188   0.03775  -0.00546
  24        3PZ         0.00069   0.00152   0.00269  -0.00035   0.14456
  25        4XX         0.00348  -0.02622   0.00410   0.00463   0.00040
  26        4YY        -0.00361   0.02266  -0.01278  -0.00059   0.00038
  27        4ZZ        -0.00700  -0.01361  -0.01339   0.00097  -0.00219
  28        4XY        -0.01821  -0.00284   0.01142   0.01676   0.00037
  29        4XZ        -0.00124  -0.00004   0.00061   0.00170  -0.01329
  30        4YZ        -0.00005  -0.00240   0.00119  -0.00025  -0.00879
  31 3   O  1S         -0.02048  -0.19545   0.05657  -0.01464  -0.00094
  32        2S          0.04457   0.43350  -0.12569   0.03525   0.00008
  33        2PX         0.00976  -0.00026  -0.01648  -0.11756   0.00145
  34        2PY        -0.02327  -0.15439  -0.05229   0.02879   0.00771
  35        2PZ         0.00068   0.00659   0.00051  -0.00067   0.13529
  36        3S          0.03977   0.40138  -0.16410   0.03156   0.01223
  37        3PX         0.00755  -0.00114  -0.01247  -0.06933   0.00224
  38        3PY        -0.01037  -0.05703  -0.03003   0.01915   0.00010
  39        3PZ         0.00010   0.00224  -0.00015  -0.00087   0.06170
  40        4XX        -0.00107  -0.00947   0.00072   0.00112  -0.00073
  41        4YY         0.00384   0.01077   0.01122  -0.00254  -0.00142
  42        4ZZ        -0.00079  -0.00555   0.00159   0.00030   0.00004
  43        4XY        -0.00320  -0.00000   0.00305   0.01316  -0.00025
  44        4XZ         0.00014   0.00000  -0.00018  -0.00059  -0.00066
  45        4YZ        -0.00017  -0.00099  -0.00009   0.00007  -0.01202
  46 4   F  1S         -0.21910   0.04626   0.04335  -0.05962  -0.00020
  47        2S          0.49134  -0.10394  -0.08856   0.11476  -0.00134
  48        2PX        -0.07205  -0.00443  -0.17723   0.36751   0.00654
  49        2PY         0.03047   0.01849   0.03109  -0.19438  -0.00086
  50        2PZ         0.00298  -0.00034   0.00605  -0.01686   0.18403
  51        3S          0.46951  -0.11201  -0.15641   0.23501   0.00522
  52        3PX        -0.04403  -0.00423  -0.10880   0.21577   0.00317
  53        3PY         0.01786   0.01395   0.01376  -0.11832   0.00147
  54        3PZ         0.00186  -0.00038   0.00315  -0.01018   0.11291
  55        4XX         0.02329   0.00065   0.01919  -0.02234  -0.00133
  56        4YY         0.00830   0.00043   0.00040  -0.00893  -0.00063
  57        4ZZ         0.00680  -0.00140   0.00125  -0.00380  -0.00023
  58        4XY        -0.00815  -0.00351  -0.00380   0.01057  -0.00014
  59        4XZ        -0.00088   0.00001  -0.00065   0.00112  -0.00971
  60        4YZ         0.00037   0.00011   0.00006  -0.00059   0.00287
                          11        12        13        14        15
                           O         O         O         O         O
     Eigenvalues --    -0.54044  -0.46926  -0.46854  -0.44792  -0.37767
   1 1   F  1S          0.00533   0.00082  -0.00162  -0.00605  -0.00030
   2        2S         -0.00529   0.00436  -0.00709   0.00325   0.00041
   3        2PX         0.32110  -0.15961   0.18886   0.07019   0.00568
   4        2PY        -0.33596   0.23097  -0.24098   0.17011   0.01276
   5        2PZ         0.00880  -0.23753  -0.22825   0.00231  -0.21839
   6        3S         -0.03612  -0.02469   0.04053   0.07549   0.00260
   7        3PX         0.19576  -0.11109   0.13257   0.05466   0.00566
   8        3PY        -0.21716   0.15015  -0.15209   0.11057   0.00657
   9        3PZ         0.00513  -0.17065  -0.16239   0.00283  -0.15877
  10        4XX         0.01807  -0.00363   0.00289  -0.00504   0.00020
  11        4YY        -0.01144   0.00926  -0.01085  -0.00666  -0.00032
  12        4ZZ         0.00118   0.00190  -0.00526  -0.00492  -0.00037
  13        4XY        -0.00874   0.00231  -0.00166   0.00213  -0.00007
  14        4XZ         0.00078  -0.00706  -0.00615   0.00010  -0.00298
  15        4YZ        -0.00063  -0.00432  -0.00472  -0.00012   0.00127
  16 2   C  1S          0.04867   0.01779  -0.02171   0.03310  -0.00234
  17        2S         -0.13082  -0.05077   0.06045  -0.08803   0.00347
  18        2PX        -0.03672   0.02677  -0.02989   0.02081  -0.00012
  19        2PY        -0.21212  -0.12690   0.13772  -0.16635  -0.00551
  20        2PZ        -0.00030   0.08226   0.07931  -0.00279   0.25692
  21        3S         -0.10639  -0.01465   0.01856  -0.03250   0.02268
  22        3PX         0.01979  -0.03164   0.04863   0.05106  -0.00065
  23        3PY        -0.12027  -0.01731   0.01362   0.10962   0.01489
  24        3PZ        -0.00094   0.05293   0.05246  -0.00146   0.09723
  25        4XX        -0.01055   0.01514  -0.01745   0.03236   0.00008
  26        4YY         0.02225  -0.00720   0.00846  -0.01835   0.00048
  27        4ZZ         0.00284   0.00087  -0.00182   0.00106  -0.00094
  28        4XY         0.01267  -0.01733   0.01631   0.01933   0.00014
  29        4XZ        -0.00013   0.02007   0.01878   0.00072  -0.00269
  30        4YZ         0.00099   0.00311   0.00284  -0.00043   0.03699
  31 3   O  1S         -0.08958  -0.03381   0.03578  -0.03655  -0.00032
  32        2S          0.18412   0.07101  -0.07647   0.08799   0.00251
  33        2PX        -0.00121  -0.04517   0.03815   0.08732   0.00138
  34        2PY         0.27972   0.20058  -0.20964   0.30011   0.04216
  35        2PZ        -0.01348   0.06004   0.08307  -0.02217   0.51047
  36        3S          0.40262   0.14260  -0.14440   0.08029  -0.01053
  37        3PX        -0.00319  -0.02972   0.01911   0.05460   0.00122
  38        3PY         0.11061   0.10399  -0.11139   0.18629   0.03137
  39        3PZ        -0.00418   0.03272   0.04610  -0.01640   0.34693
  40        4XX        -0.00842  -0.00022  -0.00050   0.00785   0.00101
  41        4YY        -0.02561  -0.01284   0.01286  -0.01494  -0.00271
  42        4ZZ        -0.00349   0.00054  -0.00036   0.00421   0.00332
  43        4XY         0.00164   0.00141  -0.00007  -0.00462  -0.00013
  44        4XZ        -0.00016   0.00181   0.00156   0.00018  -0.00053
  45        4YZ         0.00120  -0.00421  -0.00594   0.00180  -0.03107
  46 4   F  1S         -0.00548   0.00460  -0.00456   0.00051  -0.00024
  47        2S          0.01577  -0.01115   0.01309   0.00447   0.00026
  48        2PX         0.01932  -0.22692   0.27023   0.13891  -0.00824
  49        2PY        -0.19430  -0.15237   0.12431   0.52360   0.01338
  50        2PZ        -0.00660   0.41599   0.37668   0.02463  -0.28445
  51        3S          0.00029  -0.00240  -0.00570  -0.00812   0.00199
  52        3PX         0.01939  -0.15422   0.18461   0.09370  -0.00697
  53        3PY        -0.12541  -0.10092   0.08005   0.34435   0.00733
  54        3PZ        -0.00528   0.28569   0.25755   0.01706  -0.20435
  55        4XX         0.00220   0.00792  -0.00887  -0.00502   0.00038
  56        4YY        -0.00126  -0.00656   0.00695   0.00938  -0.00028
  57        4ZZ         0.00167  -0.00075   0.00380   0.00234  -0.00052
  58        4XY         0.00907   0.00373  -0.00236  -0.01035   0.00007
  59        4XZ         0.00036  -0.01485  -0.01282  -0.00055   0.00490
  60        4YZ        -0.00045   0.00546   0.00559   0.00073   0.00091
                          16        17        18        19        20
                           O         V         V         V         V
     Eigenvalues --    -0.33427  -0.06210   0.00699   0.21600   0.29167
   1 1   F  1S         -0.01047   0.01401   0.05304   0.07063   0.03323
   2        2S          0.01866  -0.02776  -0.11159  -0.14965  -0.08001
   3        2PX         0.02872  -0.07191  -0.28934  -0.13825  -0.18780
   4        2PY         0.16106  -0.02013  -0.06299  -0.25637   0.09569
   5        2PZ         0.00279  -0.22247   0.05315  -0.01260  -0.02311
   6        3S          0.08446  -0.11045  -0.42421  -0.69601  -0.37524
   7        3PX         0.02934  -0.07696  -0.31376  -0.27346  -0.24536
   8        3PY         0.12279  -0.02906  -0.10901  -0.35641   0.11048
   9        3PZ         0.00322  -0.18578   0.04236  -0.01480  -0.02363
  10        4XX        -0.00463   0.00188   0.01279  -0.01079   0.01764
  11        4YY        -0.00210   0.00034  -0.00363   0.02105  -0.00013
  12        4ZZ        -0.00212   0.00585   0.01353   0.01327  -0.01486
  13        4XY         0.00449  -0.00182  -0.00525   0.00900   0.00057
  14        4XZ        -0.00014   0.01468  -0.00552  -0.00100   0.00394
  15        4YZ         0.00028   0.00688  -0.00360   0.00202  -0.00036
  16 2   C  1S         -0.00204  -0.04414  -0.14813  -0.03616   0.04110
  17        2S          0.00693   0.08264   0.28762  -0.04723   0.05035
  18        2PX         0.07644   0.02675   0.15841  -0.74098  -0.20294
  19        2PY         0.00498  -0.07113  -0.30919   0.08459  -0.40309
  20        2PZ        -0.00096   0.59793  -0.18813  -0.02138   0.01137
  21        3S         -0.01842   0.34825   1.23214   0.91288  -1.49054
  22        3PX         0.11446   0.00234   0.04578  -0.90790  -0.28472
  23        3PY        -0.00567  -0.02901  -0.14874   0.24784  -1.86286
  24        3PZ         0.00048   0.41755  -0.15709  -0.04167   0.06180
  25        4XX        -0.00414  -0.01069  -0.03970   0.00862  -0.02283
  26        4YY         0.00197  -0.00719  -0.01384  -0.01769   0.03041
  27        4ZZ        -0.00027   0.00877   0.02598   0.01045  -0.01684
  28        4XY         0.04107  -0.00119  -0.00383  -0.02166  -0.01417
  29        4XZ        -0.00035   0.00079   0.00014  -0.00595  -0.00160
  30        4YZ         0.00009  -0.02354   0.00537   0.00153  -0.00476
  31 3   O  1S         -0.00100   0.00867   0.03123   0.03636  -0.10911
  32        2S          0.00353  -0.01686  -0.05924  -0.06754   0.16274
  33        2PX         0.61751  -0.00849  -0.05183   0.27152   0.07624
  34        2PY        -0.00916   0.03628   0.16068   0.11038  -0.23284
  35        2PZ         0.00137  -0.39931   0.10189   0.00309   0.01826
  36        3S          0.00740  -0.08202  -0.31488  -0.51371   1.89340
  37        3PX         0.40361  -0.00739  -0.04999   0.34995   0.11587
  38        3PY        -0.00815   0.05318   0.24023   0.30331  -0.93483
  39        3PZ         0.00104  -0.37418   0.09922  -0.00198   0.04434
  40        4XX        -0.00098   0.00174   0.00547   0.00896  -0.04142
  41        4YY         0.00133  -0.00201  -0.00462  -0.00558   0.00424
  42        4ZZ         0.00061   0.00506   0.01703   0.01489  -0.04836
  43        4XY        -0.02670  -0.00034  -0.00302   0.02698   0.00900
  44        4XZ         0.00136   0.00050   0.00007  -0.00292  -0.00103
  45        4YZ        -0.00006  -0.00451   0.00457   0.00162  -0.00177
  46 4   F  1S          0.00991   0.01402   0.05875  -0.04232  -0.00765
  47        2S         -0.01934  -0.02953  -0.13153   0.09940   0.00375
  48        2PX         0.08117   0.09137   0.36918  -0.17715   0.06266
  49        2PY        -0.21418  -0.02196  -0.08635   0.12487   0.20660
  50        2PZ        -0.00229  -0.18893   0.03811   0.02587  -0.00735
  51        3S         -0.07342  -0.09618  -0.40356   0.34633   0.07082
  52        3PX         0.07314   0.09338   0.38353  -0.19557   0.03222
  53        3PY        -0.15492  -0.02712  -0.11564   0.12637   0.25490
  54        3PZ        -0.00304  -0.15233   0.02890   0.02063  -0.00708
  55        4XX        -0.00139   0.00007   0.00627  -0.01275   0.00852
  56        4YY         0.00311   0.00034  -0.00286  -0.00644  -0.00885
  57        4ZZ         0.00161   0.00416   0.00797   0.00881  -0.01626
  58        4XY         0.00552   0.00138   0.00301   0.01822   0.01215
  59        4XZ         0.00018  -0.01322   0.00468   0.00335  -0.00192
  60        4YZ        -0.00032   0.00382  -0.00182  -0.00219  -0.00213
                          21        22        23        24        25
                           V         V         V         V         V
     Eigenvalues --     0.46840   0.47580   0.48300   0.55223   0.84061
   1 1   F  1S          0.02090  -0.00737  -0.02102  -0.00054   0.00245
   2        2S         -0.00162   0.00135   0.00954  -0.01909   0.06530
   3        2PX         0.22866  -0.05486  -0.14441   0.02513  -0.07207
   4        2PY         0.20217  -0.04194   0.03807   0.00311   0.10514
   5        2PZ        -0.01004  -0.11157   0.01888   0.00746  -0.00911
   6        3S         -0.75764   0.22607   0.53886   0.05115  -0.12573
   7        3PX        -0.23452   0.06557   0.03472  -0.03043   0.01374
   8        3PY        -0.09117   0.04452   0.21907  -0.11023  -0.06699
   9        3PZ        -0.03613  -0.12438   0.02028   0.00211   0.00349
  10        4XX        -0.10004   0.02378   0.00104   0.01637   0.04819
  11        4YY         0.00262   0.00235   0.02431  -0.04961   0.00324
  12        4ZZ         0.06238  -0.01978  -0.02325   0.00328   0.01322
  13        4XY        -0.10039   0.02927   0.05305  -0.03610  -0.01844
  14        4XZ        -0.01629  -0.03188   0.00429   0.00151   0.00322
  15        4YZ        -0.01080  -0.02409   0.00264  -0.00091  -0.00054
  16 2   C  1S          0.02835  -0.00407  -0.01416   0.05380   0.03635
  17        2S         -0.95836   0.13711  -0.29372  -1.01997   0.42076
  18        2PX         0.30834  -0.10787  -0.65313  -0.08143  -0.01742
  19        2PY         0.55345  -0.09429   0.30789  -0.69655   0.26874
  20        2PZ        -0.18468  -0.91518   0.06332   0.01707  -0.01425
  21        3S          1.49619  -0.27986   0.53027   1.59515  -0.00092
  22        3PX        -0.64661   0.26962   1.93622   0.21483   0.00168
  23        3PY        -1.02986   0.18281  -0.46878   1.13788  -0.07319
  24        3PZ         0.23061   1.31846  -0.10725  -0.04587   0.00098
  25        4XX         0.05996  -0.01918   0.00832  -0.07452  -0.02539
  26        4YY        -0.04483  -0.00457  -0.06012   0.13661   0.25945
  27        4ZZ        -0.04722   0.01148   0.00095  -0.08260  -0.05561
  28        4XY         0.07081  -0.02063  -0.06767  -0.00433  -0.00571
  29        4XZ         0.00480   0.00279  -0.00063   0.00023   0.00102
  30        4YZ         0.00380  -0.00551   0.00126  -0.00826  -0.01458
  31 3   O  1S          0.00526  -0.00158   0.00655  -0.00954   0.00829
  32        2S         -0.07550   0.00589  -0.04934   0.08425  -0.52458
  33        2PX         0.02284  -0.01675  -0.16694  -0.01345   0.03668
  34        2PY         0.02243   0.00075   0.06240  -0.46201  -0.66359
  35        2PZ        -0.01192  -0.11199   0.01170   0.01728   0.02075
  36        3S          0.21777   0.00878   0.12659  -0.89350   0.69361
  37        3PX         0.09534  -0.04164  -0.32106  -0.03964  -0.04118
  38        3PY         0.10683  -0.04098   0.04138   0.22931   1.18835
  39        3PZ        -0.02872  -0.16718   0.01467  -0.00781  -0.04173
  40        4XX        -0.02100   0.00007  -0.02105   0.05530  -0.19982
  41        4YY        -0.01517   0.00973   0.02006  -0.17881  -0.21452
  42        4ZZ        -0.01357  -0.00523  -0.00940   0.07419  -0.19256
  43        4XY        -0.02324   0.00768   0.04282   0.00828   0.00244
  44        4XZ         0.00032  -0.00028   0.00096  -0.00003  -0.00009
  45        4YZ         0.00913   0.04971  -0.00532   0.01253   0.00041
  46 4   F  1S          0.00829  -0.00021   0.04316   0.00454   0.00225
  47        2S         -0.07380   0.00934  -0.07128  -0.05955   0.10506
  48        2PX        -0.02889  -0.00945  -0.17430  -0.07646   0.05524
  49        2PY         0.09479  -0.01806   0.05682  -0.01236   0.11213
  50        2PZ        -0.01591  -0.12017   0.00530   0.00531  -0.00765
  51        3S         -0.08660  -0.01590  -0.88419  -0.06511  -0.17771
  52        3PX         0.17208  -0.02673   0.33124   0.07140  -0.03771
  53        3PY         0.06114  -0.01953  -0.20055  -0.14840  -0.05606
  54        3PZ        -0.02590  -0.12141  -0.00831   0.00013   0.00445
  55        4XX        -0.09004   0.01281  -0.09592  -0.03663   0.07466
  56        4YY         0.00072  -0.00053   0.00838  -0.04839   0.01926
  57        4ZZ        -0.00329   0.00007   0.04884  -0.00262   0.03164
  58        4XY         0.01352  -0.00050   0.07044   0.05849   0.02572
  59        4XZ         0.00785   0.02134   0.00484   0.00078  -0.00371
  60        4YZ        -0.00351  -0.01226  -0.00121  -0.00136  -0.00067
                          26        27        28        29        30
                           V         V         V         V         V
     Eigenvalues --     0.93852   0.94423   1.04093   1.08365   1.11810
   1 1   F  1S         -0.00029  -0.01371  -0.03709   0.00824   0.01791
   2        2S          0.00779  -0.54363  -0.78735   0.15472   0.34084
   3        2PX        -0.02156   0.16692   0.46548  -0.02392  -0.08712
   4        2PY         0.01251   0.23548   0.09927  -0.09690  -0.39250
   5        2PZ         0.17150  -0.02645   0.03892  -0.59238   0.19400
   6        3S         -0.00660   0.76941   1.61012  -0.35440  -0.84540
   7        3PX         0.02445  -0.27608  -0.66029   0.07244   0.24304
   8        3PY        -0.00914  -0.34382  -0.20888   0.11185   0.47011
   9        3PZ        -0.10884   0.01814  -0.04795   0.63001  -0.21115
  10        4XX         0.00771  -0.23954  -0.35868   0.06881   0.14133
  11        4YY         0.00236  -0.28844  -0.34280   0.06769   0.15283
  12        4ZZ        -0.00122  -0.20427  -0.41192   0.08134   0.19266
  13        4XY        -0.00446  -0.00635   0.01999  -0.01407  -0.04926
  14        4XZ        -0.02552   0.00220   0.00250   0.03542  -0.01356
  15        4YZ         0.03117   0.00810  -0.00394   0.07031  -0.02050
  16 2   C  1S         -0.00136   0.00853   0.02635   0.00188   0.00183
  17        2S         -0.00821   0.10315   0.44020   0.04663   0.04120
  18        2PX         0.00465  -0.11257  -0.09131   0.10382   0.29190
  19        2PY         0.00620  -0.04480  -0.15649   0.00078   0.03656
  20        2PZ         0.06678  -0.00108  -0.01225  -0.01516   0.00815
  21        3S          0.03118  -0.07915  -0.56062  -0.12786  -0.14403
  22        3PX         0.03612  -0.53812   0.19734  -0.27345  -0.80263
  23        3PY         0.00936  -0.02280   0.07185  -0.01529  -0.03510
  24        3PZ        -0.42309  -0.02804   0.00719  -0.03344   0.00273
  25        4XX        -0.00073   0.04483   0.23482   0.01852   0.00233
  26        4YY        -0.00313   0.02004   0.07218   0.00653   0.02663
  27        4ZZ         0.00320  -0.01348  -0.12457  -0.01850  -0.03250
  28        4XY        -0.00194   0.03702   0.08923  -0.05994  -0.22366
  29        4XZ        -0.01257  -0.01050   0.02776  -0.24424   0.07411
  30        4YZ         0.00576   0.00131  -0.00425   0.01504  -0.01337
  31 3   O  1S          0.00127  -0.00094  -0.00319  -0.00105   0.00058
  32        2S          0.01434  -0.01149   0.01738  -0.00128   0.05113
  33        2PX         0.05220  -0.77103   0.17102  -0.08413  -0.39257
  34        2PY        -0.02709  -0.03572  -0.04799  -0.01556  -0.04219
  35        2PZ        -0.92058  -0.05990   0.00244  -0.02913   0.00113
  36        3S         -0.05303   0.05157   0.08780   0.04326  -0.05152
  37        3PX        -0.07102   1.05273  -0.29518   0.18993   0.80362
  38        3PY         0.04670   0.04378   0.05321   0.01261   0.08876
  39        3PZ         1.18278   0.07775  -0.00437   0.04286   0.00049
  40        4XX         0.00297  -0.00056   0.03427   0.00560   0.01940
  41        4YY         0.00807  -0.00812   0.00067   0.00470   0.02903
  42        4ZZ         0.00624  -0.01210  -0.05690  -0.01678  -0.01922
  43        4XY        -0.00159   0.02701  -0.03051   0.01531   0.14834
  44        4XZ        -0.00113  -0.00716   0.00935  -0.08921   0.02373
  45        4YZ         0.02540   0.00229  -0.00073   0.00266   0.00045
  46 4   F  1S         -0.00101   0.00710  -0.03749  -0.02317  -0.03999
  47        2S         -0.03549   0.34171  -0.83441  -0.43062  -0.71536
  48        2PX         0.00543   0.06143  -0.38645  -0.14474  -0.26679
  49        2PY         0.03914  -0.23020   0.02420   0.07680   0.26244
  50        2PZ         0.11923   0.04133  -0.06334   0.56924  -0.20432
  51        3S          0.04499  -0.41982   1.59888   0.93015   1.64401
  52        3PX         0.00384  -0.13141   0.43940   0.16338   0.31060
  53        3PY        -0.04321   0.26994  -0.06667  -0.06719  -0.23981
  54        3PZ        -0.05942  -0.02863   0.05893  -0.58519   0.22172
  55        4XX        -0.01215   0.14139  -0.37672  -0.17163  -0.25138
  56        4YY        -0.02184   0.20005  -0.36220  -0.19215  -0.33723
  57        4ZZ        -0.01525   0.11044  -0.38507  -0.21809  -0.37064
  58        4XY         0.00687  -0.02130  -0.02777  -0.01416  -0.01987
  59        4XZ         0.02184   0.00628  -0.01320   0.07269  -0.03138
  60        4YZ         0.02945  -0.00226   0.00855  -0.05418   0.01604
                          31        32        33        34        35
                           V         V         V         V         V
     Eigenvalues --     1.22240   1.26003   1.26756   1.33425   1.35683
   1 1   F  1S         -0.01486  -0.00757  -0.00496  -0.02889  -0.00980
   2        2S         -0.17342   0.00440  -0.08612  -0.41201  -0.12445
   3        2PX        -0.33252   0.38190   0.04382   0.00168  -0.00516
   4        2PY         0.37789  -0.21099  -0.17634  -0.40751  -0.05383
   5        2PZ        -0.06680  -0.05389  -0.56408   0.20887  -0.21270
   6        3S          0.46610   0.16287   0.17454   0.96081   0.30327
   7        3PX         0.52276  -0.52542  -0.04761   0.06906   0.03691
   8        3PY        -0.43139   0.27165   0.28464   0.74643   0.11859
   9        3PZ         0.09022   0.07522   0.80901  -0.34060   0.43545
  10        4XX        -0.18748   0.08518  -0.02642  -0.13870  -0.01963
  11        4YY         0.14702  -0.03220  -0.02649  -0.05950  -0.01915
  12        4ZZ        -0.18011  -0.12245  -0.04006  -0.30136  -0.11736
  13        4XY         0.02812   0.01619  -0.03153  -0.13639  -0.02877
  14        4XZ        -0.00042  -0.01373   0.00156   0.10335  -0.39077
  15        4YZ        -0.01050  -0.00833  -0.08281   0.04594  -0.20887
  16 2   C  1S         -0.01470  -0.00232  -0.00661  -0.01687  -0.00321
  17        2S          0.03751   0.00673  -0.04059   0.01108  -0.00000
  18        2PX         0.09482  -0.12497  -0.02192  -0.03914   0.00716
  19        2PY        -0.18113  -0.05857   0.03714   0.03598   0.02103
  20        2PZ         0.02197   0.00390   0.14552  -0.04173   0.02423
  21        3S         -1.84389  -0.42927  -0.28475  -1.94681  -0.30171
  22        3PX        -0.28065   0.30221   0.09126   0.11967   0.04895
  23        3PY        -0.56976  -0.11744  -0.31453  -1.21955  -0.14638
  24        3PZ        -0.02482  -0.00359  -0.71341   0.31622  -0.06610
  25        4XX         0.19562   0.03892  -0.02157   0.04675  -0.02411
  26        4YY        -0.18328  -0.03367  -0.00374   0.00626   0.04054
  27        4ZZ        -0.09479  -0.02461  -0.02575  -0.23535  -0.04791
  28        4XY        -0.08217   0.09040   0.00121  -0.04154  -0.06366
  29        4XZ         0.01591   0.02312   0.07894  -0.05236   0.42119
  30        4YZ        -0.00964   0.02223  -0.25458  -0.05712   0.39109
  31 3   O  1S         -0.06346  -0.01685  -0.00968  -0.05816  -0.00691
  32        2S         -1.04327  -0.32063  -0.10965  -0.77612  -0.09580
  33        2PX        -0.01153  -0.09705   0.02188   0.04503   0.02418
  34        2PY         0.21559   0.09215  -0.00239   0.10334   0.01693
  35        2PZ        -0.01455  -0.00565  -0.14370   0.03644  -0.07355
  36        3S          2.94046   0.81733   0.45379   2.75531   0.34313
  37        3PX         0.11859   0.05169  -0.05118  -0.07189  -0.01780
  38        3PY        -1.16066  -0.34929  -0.08874  -0.84127  -0.10730
  39        3PZ         0.07303   0.00999   0.49074  -0.06754  -0.03602
  40        4XX        -0.20526  -0.07629   0.00983  -0.00802   0.00333
  41        4YY        -0.38027  -0.12882  -0.01225  -0.23262  -0.04234
  42        4ZZ        -0.28271  -0.05444  -0.10118  -0.43366  -0.04397
  43        4XY         0.02824   0.02357  -0.00657   0.00126   0.04229
  44        4XZ         0.00210   0.00570   0.01895  -0.01759   0.13406
  45        4YZ         0.01241  -0.00716   0.20459  -0.00146  -0.24785
  46 4   F  1S         -0.02399   0.00448  -0.00048  -0.02286  -0.00335
  47        2S         -0.33187   0.00140  -0.02735  -0.41098  -0.06946
  48        2PX        -0.01785   0.49161   0.05669   0.23153   0.02498
  49        2PY         0.16867   0.55839  -0.17814  -0.43867  -0.11522
  50        2PZ        -0.10343   0.01889  -0.51561   0.18902   0.09944
  51        3S          0.92160  -0.08347   0.00781   0.86107   0.13645
  52        3PX        -0.03328  -0.62617  -0.07286  -0.34538  -0.03507
  53        3PY        -0.14219  -0.69856   0.25568   0.71229   0.17404
  54        3PZ         0.12812  -0.02401   0.70433  -0.27885  -0.14805
  55        4XX        -0.12831  -0.12123  -0.03115  -0.19067   0.00276
  56        4YY        -0.03012   0.13472   0.00529  -0.06818  -0.05626
  57        4ZZ        -0.28778   0.03429   0.00676  -0.22632  -0.02698
  58        4XY        -0.06609  -0.05341   0.03681   0.12670   0.06698
  59        4XZ        -0.01005  -0.00226  -0.02167  -0.04451  -0.08906
  60        4YZ        -0.00216   0.00440  -0.03002  -0.00672   0.15659
                          36        37        38        39        40
                           V         V         V         V         V
     Eigenvalues --     1.37299   1.55520   1.61781   1.74218   1.75420
   1 1   F  1S         -0.00437   0.01277  -0.00485   0.01619   0.00110
   2        2S         -0.06944  -0.25987   0.31433   0.35864  -0.00713
   3        2PX        -0.00422  -0.23793   0.29566   0.19574  -0.02150
   4        2PY        -0.05326  -0.22033   0.08110  -0.17107   0.01909
   5        2PZ        -0.04060   0.00459   0.01679   0.02988   0.00694
   6        3S          0.15575   0.23145  -0.40176  -0.83541  -0.00073
   7        3PX         0.01324   0.13835  -0.33436  -0.40772   0.03539
   8        3PY         0.10463   0.32481   0.11280   0.35682  -0.04531
   9        3PZ         0.05638  -0.01257  -0.02336  -0.05208  -0.00633
  10        4XX         0.02006   0.15928   0.41141  -0.19478   0.08930
  11        4YY        -0.05341  -0.43040  -0.01936  -0.10191  -0.01740
  12        4ZZ        -0.04749   0.11622  -0.13070   0.64017  -0.06898
  13        4XY        -0.04459  -0.11934  -0.13343   0.47706  -0.07024
  14        4XZ        -0.07636  -0.00526   0.07272  -0.12066  -0.52157
  15        4YZ         0.17765  -0.07104  -0.05539   0.03569   0.70420
  16 2   C  1S         -0.00342  -0.01197  -0.00047   0.02738  -0.00310
  17        2S          0.00373   0.11132   0.06063   0.05204   0.01066
  18        2PX        -0.01790  -0.04745   0.05637   0.00919  -0.00500
  19        2PY         0.02044  -0.02006   0.12469  -0.08785   0.01650
  20        2PZ        -0.00748   0.00064   0.00457   0.01313   0.01811
  21        3S         -0.25280  -0.93438  -0.79814  -1.31422   0.05906
  22        3PX        -0.00810  -0.16475   0.17098  -0.01998  -0.07021
  23        3PY        -0.10439  -0.66872  -0.84618  -1.74566   0.13565
  24        3PZ        -0.11962   0.04233   0.02963   0.05711  -0.01105
  25        4XX        -0.03153  -0.10933  -0.27153   0.18144  -0.03038
  26        4YY         0.04086  -0.01394   0.14108  -0.40863   0.04389
  27        4ZZ        -0.04083   0.10166   0.18795   0.29652  -0.02100
  28        4XY         0.01633   0.42081  -0.15630  -0.01183   0.01393
  29        4XZ        -0.38637   0.04414  -0.01888  -0.00760   0.01493
  30        4YZ         0.42407   0.01526  -0.02087   0.04137  -0.03079
  31 3   O  1S         -0.00508  -0.02570  -0.02014  -0.04802   0.00435
  32        2S         -0.08517  -0.48471  -0.75451  -0.63145   0.01841
  33        2PX         0.00106  -0.09494   0.03393   0.01179  -0.00496
  34        2PY         0.02065   0.09321   0.31444  -0.17305   0.03642
  35        2PZ        -0.07468  -0.00853  -0.01263  -0.00524   0.04682
  36        3S          0.27816   1.52380   1.89430   2.67772  -0.16136
  37        3PX        -0.01050   0.05683  -0.04377   0.00132   0.01925
  38        3PY        -0.09450  -0.51607  -0.72604  -0.73925   0.02912
  39        3PZ        -0.03020   0.02088   0.03775   0.04977  -0.05520
  40        4XX         0.00152  -0.11761  -0.45591  -0.04167  -0.04924
  41        4YY        -0.04031  -0.15390  -0.26420  -0.28480   0.02546
  42        4ZZ        -0.02965  -0.06130   0.26155  -0.01082   0.03821
  43        4XY        -0.02768  -0.34862   0.13353  -0.01157  -0.03861
  44        4XZ        -0.12175   0.07073  -0.02992  -0.08405  -0.25369
  45        4YZ        -0.26663  -0.01051   0.05026  -0.00795   0.17151
  46 4   F  1S         -0.00772  -0.02601   0.01226   0.01942  -0.00725
  47        2S         -0.10854   0.21681   0.30968   0.08680  -0.03561
  48        2PX         0.03429  -0.33866  -0.18098  -0.01971  -0.01270
  49        2PY        -0.05630   0.09824  -0.03804  -0.14714   0.01165
  50        2PZ        -0.36972   0.02231   0.01209   0.00928  -0.03758
  51        3S          0.24592  -0.05799  -0.63568  -0.34353   0.14106
  52        3PX        -0.06641   0.26093   0.29734   0.15864  -0.01817
  53        3PY         0.09777   0.00466   0.14671   0.35328  -0.01299
  54        3PZ         0.56952  -0.02950  -0.01935  -0.02325   0.04167
  55        4XX        -0.02698  -0.10283   0.41965   0.15200  -0.03974
  56        4YY        -0.02785   0.33273  -0.12743  -0.07886   0.03337
  57        4ZZ        -0.08339  -0.18019   0.03589   0.12470  -0.06629
  58        4XY         0.03057  -0.09764   0.23551  -0.01737   0.04929
  59        4XZ         0.39169  -0.01916  -0.01328  -0.04252  -0.32812
  60        4YZ        -0.12242   0.02387  -0.06807  -0.07819   0.01726
                          41        42        43        44        45
                           V         V         V         V         V
     Eigenvalues --     1.77461   1.79328   1.80783   1.82525   1.86135
   1 1   F  1S         -0.00286  -0.00255  -0.00388  -0.04644  -0.01178
   2        2S         -0.02792   0.18901  -0.05231  -0.93188   0.10945
   3        2PX         0.03589  -0.02185   0.00890  -0.12412  -0.03586
   4        2PY        -0.05035   0.16324  -0.01782  -0.02413   0.24964
   5        2PZ        -0.04734  -0.00428  -0.01013   0.00658   0.00036
   6        3S          0.08839  -0.34715   0.14131   2.25578  -0.05224
   7        3PX        -0.06153   0.12412   0.00591   0.55638   0.17642
   8        3PY         0.12032  -0.37423   0.05649   0.22244  -0.35693
   9        3PZ         0.05860   0.00305   0.01543  -0.00239  -0.00002
  10        4XX        -0.05124  -0.08494  -0.02968  -0.50277   0.32908
  11        4YY         0.02487  -0.11180  -0.05304  -0.23807  -0.54491
  12        4ZZ        -0.01021   0.29001   0.02737  -0.08485   0.22320
  13        4XY        -0.00778   0.25515  -0.00413  -0.20000  -0.01220
  14        4XZ         0.03144   0.04516   0.07993   0.00409   0.00515
  15        4YZ         0.42047   0.01070  -0.00424  -0.00296   0.05034
  16 2   C  1S          0.00313  -0.00449   0.00350   0.02644  -0.00407
  17        2S         -0.01749   0.14117   0.02886   0.42136   0.17171
  18        2PX        -0.00443   0.07548   0.00230   0.06035   0.09803
  19        2PY        -0.00393   0.01833  -0.00161  -0.10656   0.10707
  20        2PZ        -0.02167  -0.01039  -0.00417  -0.01632  -0.00782
  21        3S         -0.15481   0.02019  -0.25202  -2.03092  -0.47928
  22        3PX         0.20348  -0.85988   0.05052   0.05517  -0.50367
  23        3PY        -0.31213   0.91754  -0.13243   0.40380   0.41753
  24        3PZ         0.01481  -0.00085   0.00897   0.09008   0.01775
  25        4XX         0.05172  -0.21234   0.00945  -0.18322  -0.24049
  26        4YY        -0.06832   0.20853  -0.03609  -0.06468   0.18220
  27        4ZZ         0.03353  -0.05723   0.03394   0.25481   0.03965
  28        4XY        -0.02059   0.05306  -0.00990  -0.03582   0.01155
  29        4XZ        -0.00232   0.01605   0.01221  -0.00450   0.00808
  30        4YZ         0.01363  -0.02118   0.00261   0.00108  -0.02119
  31 3   O  1S         -0.00690   0.01776  -0.00402  -0.01572   0.01507
  32        2S         -0.10848   0.20561  -0.08037  -0.14455  -0.23910
  33        2PX         0.00446  -0.02810   0.00872   0.01052   0.03626
  34        2PY        -0.02474   0.11157  -0.00622  -0.04753   0.22822
  35        2PZ         0.03149   0.00625   0.04062   0.00655   0.00467
  36        3S          0.43836  -0.99619   0.29262   0.65063   0.07744
  37        3PX        -0.04718   0.21210  -0.02022  -0.02418   0.05407
  38        3PY        -0.12195   0.23170  -0.09346  -0.24950  -0.17385
  39        3PZ        -0.03419  -0.03132  -0.05029  -0.01686  -0.01812
  40        4XX        -0.04277  -0.09228  -0.06083  -0.47456   0.43784
  41        4YY        -0.04695   0.11607  -0.02596  -0.03014  -0.05741
  42        4ZZ         0.04021   0.06793   0.05298   0.40320  -0.42509
  43        4XY         0.02105  -0.02376   0.01271   0.02046   0.32251
  44        4XZ         0.80765   0.12205  -0.38597   0.01674   0.03953
  45        4YZ         0.09778   0.01169   0.10205  -0.01331   0.01010
  46 4   F  1S          0.01350  -0.05008   0.00023  -0.04552  -0.04045
  47        2S          0.16642  -0.85952  -0.01342  -0.76301  -0.43876
  48        2PX        -0.02166   0.16416   0.00216   0.12682   0.00977
  49        2PY        -0.01392   0.02200  -0.01436  -0.02940   0.02906
  50        2PZ         0.02611  -0.01027  -0.01903   0.00656  -0.00582
  51        3S         -0.44255   2.08923   0.01884   1.83247   1.25234
  52        3PX         0.10514  -0.54097  -0.00402  -0.50759  -0.25127
  53        3PY         0.01033   0.05995   0.03094   0.12254   0.04071
  54        3PZ        -0.03532   0.03052   0.02241  -0.00748   0.01739
  55        4XX         0.13646  -0.27294  -0.00365  -0.64585  -0.39023
  56        4YY        -0.03050   0.07726  -0.01002  -0.34336  -0.38581
  57        4ZZ         0.09144  -0.67103   0.00714   0.21943   0.24594
  58        4XY        -0.03830   0.61268   0.01123  -0.00971  -0.02929
  59        4XZ         0.24248   0.01322   0.25873  -0.01352   0.01096
  60        4YZ         0.26097   0.03903   0.87092  -0.06100   0.02759
                          46        47        48        49        50
                           V         V         V         V         V
     Eigenvalues --     1.91421   1.93260   2.01456   2.10125   2.44635
   1 1   F  1S         -0.08072   0.00855   0.02528  -0.01544   0.00195
   2        2S         -1.22898   0.23759   0.17858   0.01289  -0.08711
   3        2PX         0.03904   0.03586  -0.10236   0.14272  -0.00344
   4        2PY        -0.00796   0.01677  -0.03350   0.03585  -0.04150
   5        2PZ        -0.02948   0.00013  -0.13717  -0.10461  -0.06056
   6        3S          3.41770  -0.54129  -0.70118   0.22588   0.16903
   7        3PX         0.42769  -0.15652  -0.03890  -0.10146  -0.00904
   8        3PY         0.37781  -0.02186  -0.12118   0.09011   0.12002
   9        3PZ         0.07963  -0.00365   0.27735   0.24777   0.20374
  10        4XX        -0.63002   0.28431   0.13514  -0.11823  -0.08295
  11        4YY        -0.63840  -0.20811  -0.12235   0.22204   0.04774
  12        4ZZ         0.10113   0.10733   0.20421  -0.15204   0.02309
  13        4XY        -0.20744  -0.02678   0.14649  -0.16490   0.05915
  14        4XZ         0.00729  -0.00038   0.41797   0.35727   0.21764
  15        4YZ         0.00749  -0.00454   0.19108   0.18137   0.39322
  16 2   C  1S          0.00279   0.00459  -0.03712   0.03991  -0.01897
  17        2S         -0.03935  -0.13633  -0.19777   0.16619   0.00997
  18        2PX        -0.16273   0.00283  -0.06675   0.09609   0.14198
  19        2PY         0.07526  -0.03067   0.11578  -0.12953  -0.06564
  20        2PZ        -0.01842   0.00418  -0.21736  -0.19059  -0.12393
  21        3S         -0.09843   0.23876   0.83495  -0.53770   0.06793
  22        3PX         2.07127   0.14895  -0.26714   0.22396   0.26694
  23        3PY         0.96270  -0.52233   0.11705  -0.27107  -0.11913
  24        3PZ        -0.00869  -0.01066  -0.41139  -0.32410  -0.10450
  25        4XX        -0.09410   0.20095   0.17002  -0.17360  -0.04124
  26        4YY         0.19160  -0.15051   0.21360  -0.30091   0.03286
  27        4ZZ        -0.04490  -0.04696  -0.56189   0.71630  -0.07126
  28        4XY        -0.40553  -0.06867   0.06158  -0.03253   0.02833
  29        4XZ        -0.04299  -0.00831  -0.01086  -0.03474   0.76045
  30        4YZ        -0.01821   0.01379   0.04830   0.06304  -0.44791
  31 3   O  1S          0.01760  -0.01263   0.01565  -0.01305   0.00027
  32        2S          0.10092   0.06358   0.00257   0.05958  -0.09117
  33        2PX         0.19629   0.17921  -0.03535   0.02783   0.01444
  34        2PY         0.12322  -0.13217   0.14968  -0.20761   0.04692
  35        2PZ        -0.00020  -0.00400  -0.09589  -0.06114  -0.01682
  36        3S         -0.81011   0.26112  -0.46695   0.36755   0.17145
  37        3PX        -0.67229  -0.28540   0.10584  -0.09639  -0.10347
  38        3PY         0.14808   0.00821   0.10589  -0.02110  -0.08375
  39        3PZ        -0.01829   0.01965   0.24300   0.22241   0.21266
  40        4XX         0.11814  -0.26806  -0.21850   0.28435  -0.03455
  41        4YY         0.02635   0.04746   0.00032  -0.06566   0.00667
  42        4ZZ        -0.08184   0.21728   0.24008  -0.18525   0.00758
  43        4XY         0.04862   0.54962  -0.08310   0.11293   0.08930
  44        4XZ        -0.01165   0.02638   0.02047   0.01450  -0.22654
  45        4YZ        -0.02025  -0.00607  -0.40363  -0.37766  -0.49490
  46 4   F  1S          0.05001   0.02938   0.01198  -0.00642  -0.00342
  47        2S          0.67305   0.07404  -0.03399   0.17125   0.24870
  48        2PX         0.07247   0.01974   0.06590  -0.11491  -0.06808
  49        2PY         0.19159  -0.21921  -0.02998   0.02726   0.02859
  50        2PZ         0.00788   0.00396  -0.12948  -0.09822   0.08761
  51        3S         -1.88232  -0.48271  -0.05558  -0.25565  -0.47645
  52        3PX         0.11061   0.14414  -0.02655   0.16238   0.18295
  53        3PY        -0.58439   0.28900   0.00941  -0.01059  -0.07926
  54        3PZ        -0.02747  -0.01158   0.25684   0.21098  -0.21736
  55        4XX         0.58112  -0.21327   0.10697  -0.13877  -0.02269
  56        4YY         0.23160   0.67239  -0.20071   0.26031   0.04925
  57        4ZZ        -0.09884  -0.23201   0.14838  -0.06569   0.02902
  58        4XY        -0.03684  -0.34596  -0.11610   0.15654   0.04101
  59        4XZ        -0.06240   0.00718  -0.48908  -0.39902   0.53127
  60        4YZ        -0.00636  -0.01774   0.16094   0.14428  -0.23386
                          51        52        53        54        55
                           V         V         V         V         V
     Eigenvalues --     2.56241   2.60824   2.69018   2.87853   2.98246
   1 1   F  1S          0.00845  -0.00156  -0.05012   0.02346   0.00165
   2        2S         -0.15559   0.33417   0.78154  -0.24601  -0.86099
   3        2PX        -0.06327  -0.03641   0.22574  -0.11878  -0.05435
   4        2PY        -0.02256   0.15640   0.08995  -0.03827  -0.05359
   5        2PZ        -0.06595  -0.00094   0.00505  -0.00325   0.00093
   6        3S          0.23239  -0.76241  -1.26181   0.32500   1.91266
   7        3PX         0.10984   0.02883  -0.64899   0.14026   1.08865
   8        3PY         0.00763  -0.63015  -0.20007  -0.02347   0.81207
   9        3PZ         0.26933   0.01023   0.01439  -0.01023   0.04733
  10        4XX         0.03317   0.31304  -0.44105   0.15558   0.54057
  11        4YY        -0.04709  -0.32910   0.03285  -0.10536   0.13476
  12        4ZZ         0.02296   0.03632   0.11458   0.05282  -0.44200
  13        4XY        -0.02098  -0.40522  -0.14123  -0.16677   0.90936
  14        4XZ         0.57397   0.03659   0.09033  -0.01859   0.06687
  15        4YZ         0.25861   0.03780   0.06426  -0.01489   0.05789
  16 2   C  1S          0.00682   0.09023  -0.00633   0.03277   0.11373
  17        2S          0.01246   0.00543  -0.23010  -1.07411  -1.51133
  18        2PX         0.04604  -0.67899  -0.48004  -0.13559   0.58438
  19        2PY         0.11516   0.43208  -0.73228  -0.84878   0.53018
  20        2PZ         0.04344  -0.03750   0.01490   0.04214   0.04894
  21        3S          0.09411  -0.03552  -0.83548  -1.39264  -1.70834
  22        3PX         0.09030  -1.23353  -0.83117   0.09501   0.14198
  23        3PY         0.20790   0.78214  -1.11577  -0.25273  -0.01024
  24        3PZ         0.05355  -0.02779   0.02121   0.04342   0.05498
  25        4XX         0.07869   0.17155  -0.29015   0.47711  -0.55281
  26        4YY        -0.05783  -0.09784   0.14663  -0.77745   0.50819
  27        4ZZ         0.00661   0.38413   0.12074   0.50783   0.87333
  28        4XY         0.05359  -0.01719  -0.22303   0.51122  -0.52501
  29        4XZ         0.50522   0.19655   0.14337  -0.01100  -0.01589
  30        4YZ         0.85652  -0.16357   0.17931  -0.00202  -0.02174
  31 3   O  1S          0.00127   0.00349  -0.01411  -0.03918  -0.02796
  32        2S          0.16536   0.49315  -0.74265  -0.45446  -0.28890
  33        2PX         0.00650  -0.04018  -0.02103  -0.00929   0.01611
  34        2PY        -0.06708  -0.12628   0.11383  -0.23516   0.10206
  35        2PZ        -0.00519   0.01131  -0.01557   0.01708  -0.00321
  36        3S         -0.37784  -1.21716   2.11182   1.88367   0.97227
  37        3PX        -0.04885   0.44710   0.37393  -0.13501   0.03709
  38        3PY         0.17279   0.63252  -1.05594  -1.25450  -0.37347
  39        3PZ        -0.27811   0.02319   0.01644   0.05129   0.00573
  40        4XX         0.05522   0.20015  -0.28611  -0.53740  -0.09428
  41        4YY        -0.02566  -0.37610   0.62433   1.15841   0.01316
  42        4ZZ         0.00354   0.19047  -0.35587  -0.51802  -0.17101
  43        4XY         0.05352  -0.40938  -0.43791   0.28967  -0.16527
  44        4XZ        -0.14559  -0.01049  -0.00166  -0.01383   0.00833
  45        4YZ         0.70050  -0.12155   0.06442  -0.11266  -0.01228
  46 4   F  1S          0.00204   0.02498  -0.01328  -0.00337  -0.00702
  47        2S         -0.01047  -1.05731  -0.26146  -0.27916  -0.42275
  48        2PX         0.01782   0.26074  -0.02064   0.09770   0.07449
  49        2PY         0.01822  -0.08782  -0.12180   0.03568  -0.05933
  50        2PZ         0.01382  -0.00139  -0.00154  -0.00076  -0.00059
  51        3S         -0.00673   2.00055   0.71230   0.57866   0.90682
  52        3PX        -0.03939  -0.90664  -0.07015  -0.39973  -0.42825
  53        3PY        -0.06510   0.32426   0.49580  -0.03556   0.27680
  54        3PZ        -0.04396   0.00801   0.00570   0.00582   0.00786
  55        4XX         0.06195   0.42251  -0.22835   0.42641   0.07287
  56        4YY        -0.03378  -0.14404   0.14852  -0.34850   0.01970
  57        4ZZ        -0.01623  -0.28223  -0.07069  -0.13184  -0.18145
  58        4XY         0.05335  -0.23979  -0.43236   0.08218  -0.36244
  59        4XZ         0.01597   0.07324   0.01318  -0.02291  -0.01617
  60        4YZ        -0.17282  -0.03194   0.00249  -0.00101   0.02176
                          56        57        58        59        60
                           V         V         V         V         V
     Eigenvalues --     3.03091   3.70362   4.09496   4.28453   4.60317
   1 1   F  1S          0.00994  -0.13414  -0.27074   0.06528  -0.69306
   2        2S          0.12441  -0.33507  -0.82868   0.04736  -2.71176
   3        2PX        -0.01992   0.00045  -0.18796   0.03874  -0.25691
   4        2PY        -0.06636  -0.04133  -0.00591   0.10845  -0.19500
   5        2PZ        -0.00042   0.00786  -0.00211   0.01017  -0.01977
   6        3S         -0.39469   1.67563   3.48451  -0.51889  10.47309
   7        3PX        -0.45276   0.13839   0.46559   0.64337   1.42188
   8        3PY         0.01702   0.29498  -0.21313   0.06137   1.06425
   9        3PZ        -0.02585  -0.02003  -0.00420   0.00477   0.08779
  10        4XX        -0.64356  -0.50121  -1.03165   0.71184  -2.45994
  11        4YY         0.42955  -0.54269  -1.22569   0.28219  -2.68955
  12        4ZZ         0.14909  -0.47428  -1.09231   0.13606  -2.97213
  13        4XY        -0.10648   0.10698  -0.10020   0.31592   0.40260
  14        4XZ        -0.04849  -0.00762  -0.00147   0.03616   0.02666
  15        4YZ         0.00048   0.00933  -0.02038   0.01351   0.02210
  16 2   C  1S          0.05264  -0.01310   0.21702  -0.35921  -0.16430
  17        2S          0.12584  -0.03256  -1.26490   2.28344   0.60750
  18        2PX        -0.58463   0.00915  -0.10347  -0.01210   0.39709
  19        2PY         0.31015   0.02386   0.18552   0.09500   0.15490
  20        2PZ        -0.00631   0.00690  -0.00933   0.04647   0.02857
  21        3S         -0.22241  -2.64874  -0.78137  -0.69832  -0.93821
  22        3PX        -0.12427  -0.04503  -0.50646  -1.13904   2.49693
  23        3PY        -0.02374  -1.15730   1.57537   0.46390   1.12352
  24        3PZ         0.01405   0.10247   0.04023   0.04773   0.06122
  25        4XX        -0.61159  -0.12534   0.99474  -2.03187  -0.78796
  26        4YY         0.79694   0.06269   0.84509  -1.92929  -0.77739
  27        4ZZ         0.12155   0.16212   0.83763  -1.10505  -0.38034
  28        4XY         1.06015   0.00963   0.05101  -0.11339  -0.02316
  29        4XZ         0.00408  -0.00276   0.01094   0.01593  -0.03680
  30        4YZ         0.00108   0.00063  -0.01736  -0.01154  -0.00844
  31 3   O  1S          0.00883  -0.49523   0.18891   0.05275   0.06399
  32        2S         -0.04890  -0.18140   0.32333   0.01550   0.11479
  33        2PX        -0.03095  -0.00285  -0.00971  -0.02082   0.07831
  34        2PY         0.21333   0.21542  -0.06046  -0.25511  -0.13854
  35        2PZ        -0.01244  -0.00681   0.01160   0.01539   0.01334
  36        3S         -0.18224   5.46861  -2.72875  -0.28051  -0.91963
  37        3PX        -0.20588   0.01958   0.10859   0.32128  -0.71784
  38        3PY         0.28211  -1.23312   0.82061  -0.31530   0.02013
  39        3PZ        -0.01955   0.03637  -0.06928   0.00000  -0.03451
  40        4XX         0.16532  -1.73048   0.61855   0.13439   0.17433
  41        4YY        -0.44709  -1.41503   0.33364   0.57598   0.37959
  42        4ZZ         0.12412  -1.68020   0.76151   0.14748   0.21094
  43        4XY         0.53528  -0.00021  -0.01851  -0.12095   0.20367
  44        4XZ        -0.02704   0.00050   0.00331   0.01258  -0.02377
  45        4YZ         0.04754  -0.00920   0.02302  -0.03026  -0.00573
  46 4   F  1S         -0.03171  -0.16364  -0.49437  -0.38868   0.25117
  47        2S         -0.49583  -0.40799  -1.44417  -1.55879   0.82852
  48        2PX         0.05392   0.02210   0.22777   0.21411  -0.05238
  49        2PY        -0.04762  -0.03908  -0.03613  -0.09452   0.14307
  50        2PZ        -0.00112   0.00488  -0.00598  -0.01025   0.01460
  51        3S          1.14567   2.00774   6.26616   5.72140  -3.54280
  52        3PX        -0.67483  -0.21740  -0.71587  -1.16066   0.05991
  53        3PY         0.35457   0.24425   0.04022   0.52689  -0.53944
  54        3PZ         0.02837  -0.01121   0.01641   0.04804  -0.04463
  55        4XX         0.44825  -0.56404  -1.89673  -1.06677   1.21028
  56        4YY        -0.25402  -0.70621  -2.04436  -1.60310   0.89906
  57        4ZZ        -0.40650  -0.59302  -2.01351  -1.77343   0.98055
  58        4XY        -0.47394  -0.10050   0.04390  -0.37539   0.04004
  59        4XZ        -0.05523   0.00312   0.00087  -0.03245  -0.00706
  60        4YZ         0.02369   0.01013  -0.01237   0.01682  -0.01405
     Density Matrix:
                           1         2         3         4         5
   1 1   F  1S          2.08529
   2        2S         -0.21524   0.57141
   3        2PX         0.03169  -0.05744   0.69948
   4        2PY         0.01712  -0.02583  -0.10505   0.84637
   5        2PZ         0.00213  -0.00242  -0.01141  -0.00675   0.85891
   6        3S         -0.22376   0.56433  -0.15719  -0.08749  -0.01581
   7        3PX         0.01974  -0.04138   0.42087  -0.08873  -0.01056
   8        3PY         0.01103  -0.01989  -0.08719   0.53319  -0.00564
   9        3PZ         0.00131  -0.00159  -0.00934  -0.00530   0.57438
  10        4XX        -0.02279   0.01444   0.03631  -0.00716  -0.00023
  11        4YY        -0.02058   0.01016  -0.00666   0.02615   0.00040
  12        4ZZ        -0.02018   0.00942  -0.00104   0.00190   0.00356
  13        4XY        -0.00226   0.00440   0.00842   0.02305  -0.00040
  14        4XZ        -0.00017   0.00036   0.00075  -0.00057   0.03188
  15        4YZ        -0.00011   0.00025  -0.00056   0.00136   0.01769
  16 2   C  1S          0.00529  -0.01229  -0.08105  -0.04172  -0.00448
  17        2S          0.00158   0.00343   0.18717   0.09640   0.01146
  18        2PX         0.01507  -0.04785  -0.20121  -0.18084  -0.01438
  19        2PY         0.01223  -0.03846  -0.21866  -0.08122  -0.01092
  20        2PZ         0.00066  -0.00297  -0.01093  -0.00577   0.11606
  21        3S          0.01450  -0.03310   0.05675   0.06384  -0.00529
  22        3PX        -0.00605   0.01325   0.05141  -0.02341  -0.01068
  23        3PY        -0.00451   0.00845  -0.06025   0.11649  -0.01135
  24        3PZ        -0.00019  -0.00019  -0.00134  -0.00158   0.05943
  25        4XX        -0.00408   0.01074  -0.00814   0.03628   0.00153
  26        4YY         0.00175  -0.00318   0.00633  -0.03276  -0.00052
  27        4ZZ         0.00301  -0.00734  -0.01235  -0.00761  -0.00202
  28        4XY        -0.00853   0.01966   0.04164   0.01310   0.00291
  29        4XZ        -0.00048   0.00106   0.00240   0.00228  -0.03071
  30        4YZ        -0.00037   0.00089   0.00256   0.00082  -0.02804
  31 3   O  1S         -0.00054   0.00156  -0.00034   0.01635  -0.00104
  32        2S          0.00136  -0.00289  -0.00451  -0.02531  -0.00010
  33        2PX        -0.01920   0.03111   0.03586   0.10903   0.00395
  34        2PY        -0.00949   0.02538   0.03784   0.09185  -0.00472
  35        2PZ        -0.00009  -0.00107   0.00023  -0.00146  -0.14852
  36        3S         -0.00351   0.00923   0.05293  -0.12879   0.01746
  37        3PX        -0.01194   0.01857   0.01930   0.07845   0.00666
  38        3PY        -0.00324   0.00936  -0.00057   0.08431  -0.00993
  39        3PZ        -0.00007  -0.00053   0.00270  -0.00317  -0.12389
  40        4XX        -0.00013   0.00028  -0.00389   0.00856  -0.00092
  41        4YY        -0.00025   0.00007   0.00013   0.00464  -0.00020
  42        4ZZ         0.00004   0.00031  -0.00062   0.00500  -0.00146
  43        4XY         0.00026   0.00002   0.00423  -0.00074  -0.00037
  44        4XZ        -0.00002  -0.00003  -0.00027   0.00023  -0.00205
  45        4YZ        -0.00001   0.00014   0.00026   0.00024   0.00576
  46 4   F  1S          0.00015   0.00090   0.01249  -0.00514  -0.00056
  47        2S          0.00127  -0.00246  -0.02065   0.00203  -0.00160
  48        2PX        -0.01449   0.02306   0.14674  -0.01839   0.00220
  49        2PY        -0.00664  -0.00406   0.01528   0.00175   0.00107
  50        2PZ        -0.00058  -0.00253  -0.00224   0.00145  -0.05358
  51        3S         -0.00419   0.00700  -0.07470   0.05039   0.00981
  52        3PX        -0.00742   0.01042   0.10611  -0.02877  -0.00024
  53        3PY        -0.00473  -0.00244   0.00686  -0.00132   0.00462
  54        3PZ        -0.00039  -0.00175  -0.00253   0.00226  -0.04643
  55        4XX         0.00049  -0.00019   0.00678  -0.00110  -0.00125
  56        4YY         0.00036  -0.00073   0.00380  -0.00683  -0.00086
  57        4ZZ         0.00075  -0.00096   0.00332  -0.00402  -0.00143
  58        4XY         0.00022   0.00011   0.00145  -0.00026  -0.00051
  59        4XZ         0.00001   0.00012   0.00027  -0.00019   0.00064
  60        4YZ        -0.00002  -0.00006  -0.00004  -0.00013  -0.00257
                           6         7         8         9        10
   6        3S          0.62764
   7        3PX        -0.08922   0.25621
   8        3PY        -0.04898  -0.06708   0.33796
   9        3PZ        -0.00976  -0.00799  -0.00418   0.38536
  10        4XX         0.00408   0.02084  -0.00624  -0.00028   0.00329
  11        4YY         0.00406  -0.00577   0.01590   0.00022   0.00044
  12        4ZZ         0.00671  -0.00132   0.00086   0.00236   0.00061
  13        4XY        -0.00008   0.00422   0.01403  -0.00033   0.00072
  14        4XZ        -0.00029   0.00033  -0.00046   0.02098   0.00007
  15        4YZ        -0.00016  -0.00044   0.00081   0.01159  -0.00001
  16 2   C  1S          0.01384  -0.05062  -0.02506  -0.00241  -0.00942
  17        2S         -0.07215   0.10802   0.05217   0.00586   0.01892
  18        2PX         0.03493  -0.10479  -0.09774  -0.00821  -0.00963
  19        2PY         0.01924  -0.12063  -0.04221  -0.00608  -0.01698
  20        2PZ         0.00311  -0.00504  -0.00299   0.05896  -0.00146
  21        3S         -0.06603   0.03142   0.03596  -0.00487   0.00649
  22        3PX         0.04370   0.03888  -0.00953  -0.00676   0.00054
  23        3PY         0.03453  -0.03386   0.07488  -0.00718  -0.00642
  24        3PZ         0.00202  -0.00014  -0.00058   0.03069  -0.00040
  25        4XX         0.01071  -0.00596   0.02256   0.00104  -0.00026
  26        4YY        -0.00213   0.00469  -0.02026  -0.00037   0.00023
  27        4ZZ        -0.00256  -0.00701  -0.00421  -0.00116  -0.00134
  28        4XY         0.02249   0.02621   0.00859   0.00205   0.00152
  29        4XZ         0.00117   0.00144   0.00149  -0.02092   0.00008
  30        4YZ         0.00064   0.00165   0.00033  -0.01957   0.00018
  31 3   O  1S         -0.00293  -0.00218   0.00793  -0.00075  -0.00014
  32        2S          0.00822   0.00153  -0.00958   0.00005   0.00019
  33        2PX         0.14915   0.04561   0.09819   0.00508  -0.00659
  34        2PY         0.03199   0.01701   0.05848  -0.00455   0.00069
  35        2PZ         0.00395   0.00318  -0.00151  -0.11940  -0.00047
  36        3S          0.00647   0.03326  -0.07511   0.01125   0.00499
  37        3PX         0.09478   0.02690   0.06866   0.00612  -0.00461
  38        3PY         0.01888  -0.00269   0.05409  -0.00731  -0.00138
  39        3PZ         0.00196   0.00356  -0.00258  -0.09521  -0.00007
  40        4XX         0.00167  -0.00234   0.00538  -0.00058  -0.00040
  41        4YY        -0.00162   0.00026   0.00269  -0.00002   0.00026
  42        4ZZ         0.00080  -0.00039   0.00313  -0.00106  -0.00012
  43        4XY        -0.00689   0.00118  -0.00207  -0.00040   0.00055
  44        4XZ         0.00035  -0.00010   0.00025  -0.00140  -0.00004
  45        4YZ        -0.00016  -0.00003   0.00017   0.00522   0.00004
  46 4   F  1S         -0.00402   0.00561  -0.00380  -0.00040   0.00040
  47        2S          0.00401  -0.00833   0.00139  -0.00108   0.00027
  48        2PX         0.09606   0.10411  -0.01076   0.00230  -0.00969
  49        2PY         0.08965   0.03080  -0.00091   0.00283  -0.00578
  50        2PZ         0.01287  -0.00008   0.00607  -0.05116  -0.00169
  51        3S          0.00736  -0.04545   0.02967   0.00642  -0.00411
  52        3PX         0.06340   0.07590  -0.01651   0.00051  -0.00598
  53        3PY         0.05774   0.01786  -0.00271   0.00448  -0.00401
  54        3PZ         0.00861  -0.00077   0.00492  -0.04092  -0.00121
  55        4XX        -0.00562   0.00364  -0.00101  -0.00091   0.00158
  56        4YY         0.00309   0.00341  -0.00396  -0.00048   0.00001
  57        4ZZ         0.00006   0.00242  -0.00242  -0.00098   0.00015
  58        4XY        -0.00165   0.00030  -0.00016  -0.00040  -0.00004
  59        4XZ        -0.00029   0.00012  -0.00029   0.00119   0.00004
  60        4YZ         0.00032   0.00006  -0.00002  -0.00206  -0.00003
                          11        12        13        14        15
  11        4YY         0.00167
  12        4ZZ         0.00061   0.00045
  13        4XY         0.00092   0.00016   0.00105
  14        4XZ         0.00000   0.00014   0.00000   0.00129
  15        4YZ         0.00007   0.00009   0.00004   0.00074   0.00045
  16 2   C  1S         -0.00231   0.00080  -0.00707  -0.00064  -0.00041
  17        2S          0.00622   0.00092   0.01282   0.00116   0.00075
  18        2PX        -0.01169  -0.00326  -0.00945  -0.00089  -0.00079
  19        2PY         0.00089  -0.00243  -0.00121  -0.00085  -0.00004
  20        2PZ        -0.00093   0.00026  -0.00070   0.00987   0.00698
  21        3S          0.00235  -0.00018   0.00526   0.00030   0.00036
  22        3PX        -0.00429  -0.00158  -0.00001  -0.00033  -0.00034
  23        3PY         0.00150  -0.00140   0.00245  -0.00045   0.00008
  24        3PZ        -0.00036   0.00010  -0.00008   0.00477   0.00317
  25        4XX         0.00071   0.00014   0.00054   0.00005   0.00006
  26        4YY        -0.00070  -0.00004  -0.00071  -0.00000  -0.00004
  27        4ZZ        -0.00055  -0.00019  -0.00085  -0.00015  -0.00009
  28        4XY        -0.00023  -0.00007   0.00112   0.00017   0.00008
  29        4XZ         0.00007  -0.00014   0.00013  -0.00111  -0.00071
  30        4YZ        -0.00002  -0.00005   0.00002  -0.00070  -0.00020
  31 3   O  1S         -0.00021   0.00016  -0.00010  -0.00001   0.00001
  32        2S          0.00039  -0.00020   0.00045  -0.00007  -0.00002
  33        2PX        -0.00892  -0.00451   0.00273  -0.00013   0.00012
  34        2PY        -0.00306   0.00105  -0.00505   0.00020   0.00003
  35        2PZ        -0.00060  -0.00040  -0.00008   0.00136   0.00365
  36        3S         -0.00245   0.00145  -0.00441   0.00061  -0.00005
  37        3PX        -0.00549  -0.00287   0.00189   0.00004   0.00019
  38        3PY        -0.00096   0.00009  -0.00168  -0.00015   0.00001
  39        3PZ        -0.00042  -0.00027  -0.00015  -0.00024   0.00183
  40        4XX         0.00006  -0.00008   0.00009  -0.00004  -0.00000
  41        4YY         0.00049  -0.00006   0.00080  -0.00003   0.00000
  42        4ZZ         0.00003  -0.00003   0.00007  -0.00002   0.00001
  43        4XY         0.00063   0.00027   0.00011   0.00001   0.00000
  44        4XZ        -0.00003  -0.00002   0.00000  -0.00007  -0.00005
  45        4YZ         0.00003   0.00002  -0.00000  -0.00024  -0.00031
  46 4   F  1S          0.00000   0.00071  -0.00029  -0.00002  -0.00005
  47        2S         -0.00010  -0.00052   0.00005  -0.00007  -0.00004
  48        2PX        -0.00433  -0.00417   0.00103   0.00018   0.00007
  49        2PY        -0.01213  -0.00729  -0.00010   0.00022  -0.00020
  50        2PZ        -0.00115  -0.00185   0.00043  -0.00024  -0.00297
  51        3S          0.00381   0.00045   0.00017   0.00026   0.00038
  52        3PX        -0.00414  -0.00310   0.00029   0.00005  -0.00006
  53        3PY        -0.00774  -0.00468  -0.00022   0.00027  -0.00006
  54        3PZ        -0.00070  -0.00129   0.00032  -0.00073  -0.00241
  55        4XX         0.00003   0.00015   0.00030  -0.00002  -0.00004
  56        4YY        -0.00066  -0.00027  -0.00011  -0.00003  -0.00004
  57        4ZZ        -0.00031  -0.00011  -0.00006  -0.00004  -0.00005
  58        4XY         0.00024   0.00017  -0.00012  -0.00002  -0.00001
  59        4XZ         0.00004   0.00005  -0.00002  -0.00012   0.00000
  60        4YZ        -0.00004  -0.00004   0.00000  -0.00002  -0.00002
                          16        17        18        19        20
  16 2   C  1S          2.04542
  17        2S         -0.07768   0.39622
  18        2PX        -0.00074   0.00077   0.30941
  19        2PY        -0.02379   0.05764   0.00540   0.39868
  20        2PZ        -0.00142   0.00275   0.00079  -0.00181   0.32761
  21        3S         -0.07950   0.17292   0.02274   0.00646   0.01310
  22        3PX        -0.00579   0.01080   0.04293  -0.01055  -0.00052
  23        3PY         0.00467  -0.00957  -0.01204   0.02944   0.00358
  24        3PZ        -0.00345   0.00765  -0.00022   0.00038   0.15106
  25        4XX        -0.01066  -0.01250  -0.00116  -0.02888   0.00005
  26        4YY        -0.01580  -0.00230  -0.00045   0.01632   0.00054
  27        4ZZ        -0.00914  -0.02175   0.00313  -0.00098  -0.00145
  28        4XY        -0.00069   0.00320  -0.01678  -0.00883  -0.00031
  29        4XZ        -0.00000   0.00008  -0.00187  -0.00032  -0.00285
  30        4YZ        -0.00003   0.00004  -0.00031  -0.00235   0.01487
  31 3   O  1S          0.01002  -0.00908   0.00087  -0.03824   0.00223
  32        2S         -0.02389   0.02552  -0.00270   0.09137  -0.00544
  33        2PX        -0.00520   0.01471   0.17996  -0.00467  -0.00150
  34        2PY         0.11124  -0.27896   0.00392  -0.37035   0.02680
  35        2PZ        -0.00917   0.02070  -0.00088   0.01782   0.36410
  36        3S          0.01933  -0.08312  -0.00066  -0.03454  -0.00343
  37        3PX        -0.00187   0.00693   0.11377  -0.00165  -0.00097
  38        3PY         0.05474  -0.13497   0.00345  -0.17671   0.01566
  39        3PZ        -0.00490   0.01071  -0.00049   0.00884   0.22693
  40        4XX         0.00138  -0.00328  -0.00002  -0.00334   0.00009
  41        4YY        -0.01090   0.02614  -0.00069   0.02208  -0.00249
  42        4ZZ         0.00061  -0.00139  -0.00000  -0.00318   0.00181
  43        4XY         0.00020  -0.00053  -0.01503  -0.00002   0.00006
  44        4XZ         0.00000  -0.00000   0.00073   0.00003  -0.00011
  45        4YZ         0.00084  -0.00187   0.00004  -0.00173  -0.02459
  46 4   F  1S          0.00111   0.00593  -0.00608   0.00527   0.00028
  47        2S         -0.00522  -0.00658   0.02704  -0.02000  -0.00169
  48        2PX         0.07278  -0.16700  -0.24312   0.18149   0.00603
  49        2PY        -0.02359   0.05496   0.12074  -0.04386  -0.00214
  50        2PZ        -0.00370   0.00941   0.01246  -0.00809   0.08891
  51        3S          0.02433  -0.07615  -0.05237   0.01743   0.00242
  52        3PX         0.04709  -0.10221  -0.14006   0.11371   0.00272
  53        3PY        -0.01348   0.02947   0.07151  -0.02591  -0.00130
  54        3PZ        -0.00204   0.00512   0.00767  -0.00505   0.04843
  55        4XX        -0.01105   0.02133   0.01551  -0.01437  -0.00100
  56        4YY        -0.00169   0.00391   0.00793   0.00006  -0.00061
  57        4ZZ        -0.00053   0.00197   0.00374  -0.00182   0.00003
  58        4XY         0.00477  -0.00900  -0.00771  -0.00061   0.00039
  59        4XZ         0.00053  -0.00101  -0.00087   0.00060  -0.00760
  60        4YZ        -0.00023   0.00044   0.00045   0.00005   0.00391
                          21        22        23        24        25
  21        3S          0.09689
  22        3PX         0.00049   0.04382
  23        3PY         0.00663   0.00369   0.05860
  24        3PZ         0.00741   0.00062   0.00063   0.07184
  25        4XX        -0.00118  -0.00103   0.00939  -0.00021   0.00517
[...]
  43        4XY         0.00000   0.00131   0.00000   0.00000   0.00000
  44        4XZ        -0.00000   0.00000  -0.00000   0.00000   0.00000
  45        4YZ         0.00001   0.00000   0.00000   0.00178  -0.00000
  46 4   F  1S          0.00042   0.00045   0.00010   0.00000  -0.00003
  47        2S         -0.00501  -0.00536  -0.00119   0.00000   0.00120
  48        2PX         0.00986  -0.00266   0.00531   0.00002   0.00095
  49        2PY         0.00254   0.00261   0.00796   0.00000   0.00243
  50        2PZ        -0.00002   0.00008   0.00002   0.00669   0.00001
  51        3S         -0.02517  -0.02465  -0.00520  -0.00001   0.00308
  52        3PX         0.02655  -0.00494   0.01071   0.00003   0.00183
  53        3PY         0.00663   0.00466   0.02617   0.00001   0.00464
  54        3PZ        -0.00006   0.00016   0.00005   0.01786   0.00002
  55        4XX         0.00321   0.00009   0.00113   0.00000   0.00013
  56        4YY         0.00045   0.00142  -0.00022   0.00000   0.00002
  57        4ZZ         0.00017   0.00054   0.00003  -0.00000   0.00000
  58        4XY         0.00033   0.00004   0.00032   0.00000   0.00015
  59        4XZ         0.00000   0.00000   0.00000   0.00065   0.00000
  60        4YZ         0.00000   0.00000   0.00000   0.00013   0.00000
                          26        27        28        29        30
  26        4YY         0.00347
  27        4ZZ         0.00004   0.00158
  28        4XY        -0.00000   0.00000   0.00784
  29        4XZ         0.00000   0.00000   0.00000   0.00189
  30        4YZ        -0.00000  -0.00000  -0.00000  -0.00000   0.00295
  31 3   O  1S         -0.00060   0.00000  -0.00000   0.00000  -0.00000
  32        2S          0.00769  -0.00039   0.00000  -0.00000   0.00004
  33        2PX         0.00000  -0.00000   0.00773   0.00001  -0.00000
  34        2PY         0.00359  -0.00064   0.00003  -0.00000   0.00011
  35        2PZ         0.00004   0.00001   0.00000   0.00000   0.00533
  36        3S          0.01267  -0.00110   0.00000  -0.00000   0.00003
  37        3PX         0.00000   0.00000   0.00809   0.00001   0.00000
  38        3PY         0.00313  -0.00186   0.00001  -0.00000   0.00003
  39        3PZ         0.00004  -0.00001   0.00000   0.00000   0.00598
  40        4XX        -0.00021   0.00001   0.00000  -0.00000  -0.00000
  41        4YY        -0.00003  -0.00021   0.00000   0.00000   0.00001
  42        4ZZ        -0.00011   0.00001  -0.00000  -0.00000   0.00000
  43        4XY        -0.00000   0.00000   0.00060   0.00000   0.00000
  44        4XZ        -0.00000  -0.00000   0.00000   0.00001  -0.00000
  45        4YZ         0.00001   0.00000   0.00000   0.00000   0.00077
  46 4   F  1S          0.00001   0.00000  -0.00004  -0.00000  -0.00000
  47        2S         -0.00020  -0.00005   0.00105   0.00000   0.00000
  48        2PX        -0.00043  -0.00010   0.00448   0.00002   0.00001
  49        2PY         0.00004  -0.00002  -0.00000   0.00001  -0.00000
  50        2PZ        -0.00000   0.00000   0.00001   0.00128   0.00041
  51        3S         -0.00078  -0.00016   0.00186   0.00001   0.00000
  52        3PX        -0.00172  -0.00092   0.00451   0.00002   0.00001
  53        3PY        -0.00063  -0.00018  -0.00005   0.00001   0.00000
  54        3PZ        -0.00001  -0.00000   0.00001   0.00341   0.00111
  55        4XX        -0.00014  -0.00012   0.00040   0.00000   0.00000
  56        4YY        -0.00001  -0.00001  -0.00000   0.00000  -0.00000
  57        4ZZ        -0.00000  -0.00001  -0.00001   0.00000   0.00000
  58        4XY        -0.00000  -0.00003   0.00000   0.00000  -0.00000
  59        4XZ        -0.00000   0.00000   0.00000   0.00017   0.00004
  60        4YZ        -0.00000   0.00000   0.00000   0.00004  -0.00000
                          31        32        33        34        35
  31 3   O  1S          2.07986
  32        2S         -0.04361   0.52392
  33        2PX         0.00000   0.00000   0.81332
  34        2PY         0.00000   0.00000  -0.00000   0.56604
  35        2PZ         0.00000   0.00000  -0.00000   0.00000   0.58021
  36        3S         -0.04239   0.46072   0.00000   0.00000   0.00000
  37        3PX         0.00000   0.00000   0.26534  -0.00000  -0.00000
  38        3PY         0.00000   0.00000  -0.00000   0.14443   0.00000
  39        3PZ         0.00000   0.00000  -0.00000   0.00000   0.19226
  40        4XX        -0.00036  -0.00580   0.00000   0.00000   0.00000
  41        4YY        -0.00036  -0.00492   0.00000   0.00000   0.00000
  42        4ZZ        -0.00044  -0.00333   0.00000   0.00000   0.00000
  43        4XY         0.00000   0.00000   0.00000   0.00000   0.00000
  44        4XZ        -0.00000  -0.00000   0.00000   0.00000   0.00000
  45        4YZ        -0.00000   0.00000   0.00000   0.00000   0.00000
  46 4   F  1S          0.00000   0.00000   0.00000   0.00000   0.00000
  47        2S          0.00000  -0.00000  -0.00000  -0.00000  -0.00000
  48        2PX         0.00000  -0.00000  -0.00001  -0.00001  -0.00000
  49        2PY         0.00000  -0.00000  -0.00001  -0.00001  -0.00000
  50        2PZ         0.00000   0.00000   0.00000  -0.00000  -0.00000
  51        3S         -0.00000   0.00004  -0.00081  -0.00031   0.00000
  52        3PX         0.00000  -0.00011  -0.00083  -0.00087  -0.00000
  53        3PY         0.00001  -0.00022  -0.00166  -0.00117  -0.00000
  54        3PZ         0.00000   0.00000   0.00000  -0.00000  -0.00041
  55        4XX         0.00000  -0.00000   0.00000  -0.00000  -0.00000
  56        4YY         0.00000  -0.00000   0.00003   0.00001  -0.00000
  57        4ZZ         0.00000  -0.00000   0.00000  -0.00000   0.00000
  58        4XY         0.00000  -0.00000  -0.00001   0.00002  -0.00000
  59        4XZ         0.00000   0.00000   0.00000   0.00000   0.00000
  60        4YZ        -0.00000   0.00000   0.00000   0.00000   0.00000
                          36        37        38        39        40
  36        3S          0.80405
  37        3PX         0.00000   0.34439
  38        3PY         0.00000  -0.00000   0.15208
  39        3PZ         0.00000  -0.00000   0.00000   0.25531
  40        4XX        -0.00952   0.00000   0.00000   0.00000   0.00058
  41        4YY        -0.01745   0.00000   0.00000   0.00000   0.00003
  42        4ZZ        -0.00501   0.00000   0.00000   0.00000   0.00012
  43        4XY        -0.00000   0.00000   0.00000   0.00000   0.00000
  44        4XZ        -0.00000   0.00000   0.00000   0.00000   0.00000
  45        4YZ         0.00000   0.00000   0.00000   0.00000  -0.00000
  46 4   F  1S         -0.00000   0.00003   0.00001  -0.00000  -0.00000
  47        2S          0.00004  -0.00048  -0.00029  -0.00000   0.00000
  48        2PX         0.00024  -0.00061  -0.00059   0.00000  -0.00000
  49        2PY        -0.00166  -0.00169  -0.00221  -0.00000   0.00001
  50        2PZ        -0.00000   0.00000  -0.00000  -0.00064   0.00000
  51        3S          0.00100  -0.00686  -0.00214   0.00000   0.00002
  52        3PX         0.00175  -0.00302  -0.00284   0.00000  -0.00003
  53        3PY        -0.01002  -0.00922  -0.00886  -0.00000   0.00036
  54        3PZ        -0.00000   0.00000  -0.00000  -0.00476   0.00000
  55        4XX         0.00003   0.00001   0.00005  -0.00000  -0.00000
  56        4YY        -0.00013   0.00047   0.00003  -0.00000   0.00000
  57        4ZZ        -0.00001   0.00007   0.00000  -0.00000   0.00000
  58        4XY        -0.00019  -0.00006   0.00005  -0.00000   0.00000
  59        4XZ        -0.00000   0.00000  -0.00000  -0.00000   0.00000
  60        4YZ         0.00000   0.00000   0.00000   0.00005  -0.00000
                          41        42        43        44        45
  41        4YY         0.00317
  42        4ZZ         0.00001   0.00028
  43        4XY         0.00000   0.00000   0.00188
  44        4XZ        -0.00000  -0.00000  -0.00000   0.00002
  45        4YZ         0.00000  -0.00000   0.00000  -0.00000   0.00234
  46 4   F  1S          0.00000   0.00000   0.00000   0.00000  -0.00000
  47        2S         -0.00000  -0.00000  -0.00000  -0.00000  -0.00000
  48        2PX        -0.00000  -0.00000   0.00000   0.00000  -0.00000
  49        2PY         0.00000   0.00000  -0.00000  -0.00000  -0.00000
  50        2PZ         0.00000  -0.00000   0.00000   0.00000  -0.00000
  51        3S         -0.00007  -0.00000  -0.00016  -0.00000   0.00000
  52        3PX        -0.00005  -0.00000   0.00000  -0.00000  -0.00000
  53        3PY         0.00010   0.00007  -0.00007  -0.00000  -0.00000
  54        3PZ         0.00000   0.00000   0.00000   0.00002  -0.00007
  55        4XX         0.00001  -0.00000   0.00000   0.00000  -0.00000
  56        4YY         0.00000   0.00000   0.00001   0.00000  -0.00000
  57        4ZZ         0.00000   0.00000   0.00000  -0.00000   0.00000
  58        4XY         0.00001   0.00000   0.00000  -0.00000  -0.00000
  59        4XZ         0.00000  -0.00000   0.00000   0.00000   0.00000
  60        4YZ        -0.00000   0.00000   0.00000   0.00000   0.00000
                          46        47        48        49        50
  46 4   F  1S          2.08669
  47        2S         -0.05250   0.56402
  48        2PX         0.00000   0.00000   0.64615
  49        2PY         0.00000   0.00000  -0.00000   0.87338
  50        2PZ         0.00000   0.00000  -0.00000  -0.00000   0.86140
  51        3S         -0.04033   0.44513   0.00000   0.00000   0.00000
  52        3PX         0.00000   0.00000   0.20629  -0.00000  -0.00000
  53        3PY         0.00000   0.00000  -0.00000   0.28724  -0.00000
  54        3PZ         0.00000   0.00000  -0.00000  -0.00000   0.29514
  55        4XX        -0.00053   0.00689   0.00000   0.00000   0.00000
  56        4YY        -0.00043   0.00269   0.00000   0.00000   0.00000
  57        4ZZ        -0.00043   0.00260   0.00000   0.00000   0.00000
  58        4XY        -0.00000   0.00000   0.00000   0.00000   0.00000
  59        4XZ        -0.00000   0.00000   0.00000   0.00000   0.00000
  60        4YZ        -0.00000   0.00000   0.00000   0.00000   0.00000
                          51        52        53        54        55
  51        3S          0.64898
  52        3PX         0.00000   0.26630
  53        3PY         0.00000  -0.00000   0.37933
  54        3PZ         0.00000  -0.00000  -0.00000   0.40581
  55        4XX         0.00493   0.00000   0.00000   0.00000   0.00353
  56        4YY         0.00183   0.00000   0.00000   0.00000   0.00021
  57        4ZZ         0.00288   0.00000   0.00000   0.00000   0.00019
  58        4XY         0.00000   0.00000   0.00000   0.00000   0.00000
  59        4XZ         0.00000   0.00000   0.00000   0.00000   0.00000
  60        4YZ         0.00000   0.00000   0.00000   0.00000   0.00000
                          56        57        58        59        60
  56        4YY         0.00081
  57        4ZZ         0.00014   0.00031
  58        4XY         0.00000   0.00000   0.00091
  59        4XZ         0.00000   0.00000   0.00000   0.00101
  60        4YZ         0.00000   0.00000   0.00000   0.00000   0.00014
     Gross orbital populations:
                           1
   1 1   F  1S          1.99321
   2        2S          0.96679
   3        2PX         0.98678
   4        2PY         1.14967
   5        2PZ         1.16021
   6        3S          0.92661
   7        3PX         0.56608
   8        3PY         0.64283
   9        3PZ         0.69750
  10        4XX         0.02932
  11        4YY         0.01595
  12        4ZZ         0.01113
  13        4XY         0.00615
  14        4XZ         0.00399
  15        4YZ         0.00172
  16 2   C  1S          1.99158
  17        2S          0.72094
  18        2PX         0.55772
  19        2PY         0.67406
  20        2PZ         0.53732
  21        3S          0.19725
  22        3PX         0.10157
  23        3PY         0.08117
  24        3PZ         0.27556
  25        4XX         0.00931
  26        4YY         0.01753
  27        4ZZ        -0.02871
  28        4XY         0.05591
  29        4XZ         0.01404
  30        4YZ         0.02106
  31 3   O  1S          1.99282
  32        2S          0.92765
  33        2PX         1.11829
  34        2PY         0.86915
  35        2PZ         0.82722
  36        3S          1.01850
  37        3PX         0.66323
  38        3PY         0.40581
  39        3PZ         0.54983
  40        4XX        -0.01329
  41        4YY         0.00509
  42        4ZZ        -0.00794
  43        4XY         0.00674
  44        4XZ         0.00008
  45        4YZ         0.01034
  46 4   F  1S          1.99334
  47        2S          0.96178
  48        2PX         0.91468
  49        2PY         1.17939
  50        2PZ         1.16669
  51        3S          0.97094
  52        3PX         0.58133
  53        3PY         0.69345
  54        3PZ         0.72500
  55        4XX         0.03186
  56        4YY         0.00909
  57        4ZZ         0.00710
  58        4XY         0.00413
  59        4XZ         0.00285
  60        4YZ         0.00060
          Condensed to atoms (all electrons):
               1          2          3          4
     1  F    8.933224   0.300868  -0.053538  -0.022621
     2  C    0.300868   4.165816   0.498794   0.260829
     3  O   -0.053538   0.498794   7.986858  -0.058600
     4  F   -0.022621   0.260829  -0.058600   9.062640
 Mulliken charges:
               1
     1  F   -0.157932
     2  C    0.773694
     3  O   -0.373514
     4  F   -0.242248
 Sum of Mulliken charges =  -0.00000
 Mulliken charges with hydrogens summed into heavy atoms:
               1
     1  F   -0.157932
     2  C    0.773694
     3  O   -0.373514
     4  F   -0.242248
 Electronic spatial extent (au):  <R**2>=            213.1309
 Charge=             -0.0000 electrons
 Dipole moment (field-independent basis, Debye):
    X=             -0.5824    Y=             -1.5993    Z=              0.1257  Tot=              1.7067
 Quadrupole moment (field-independent basis, Debye-Ang):
   XX=            -20.5959   YY=            -22.5361   ZZ=            -18.5832
   XY=              0.4122   XZ=             -0.0135   YZ=             -0.0164
 Traceless Quadrupole moment (field-independent basis, Debye-Ang):
   XX=             -0.0241   YY=             -1.9643   ZZ=              1.9885
   XY=              0.4122   XZ=             -0.0135   YZ=             -0.0164
 Octapole moment (field-independent basis, Debye-Ang**2):
  XXX=             -0.5341  YYY=             -8.4461  ZZZ=             -0.1494  XYY=              0.0589
  XXY=             -1.6878  XXZ=             -0.1319  XZZ=             -0.0807  YZZ=             -1.6897
  YYZ=             -0.1170  XYZ=             -0.0031
 Hexadecapole moment (field-independent basis, Debye-Ang**3):
 XXXX=            -91.6931 YYYY=            -92.2897 ZZZZ=            -12.0286 XXXY=              1.0457
 XXXZ=             -0.0182 YYYX=              1.1299 YYYZ=             -0.0514 ZZZX=              0.0046
 ZZZY=             -0.0114 XXYY=            -30.6888 XXZZ=            -17.5993 YYZZ=            -16.6023
 XXYZ=              0.0819 YYXZ=              0.0110 ZZXY=              0.2419
 N-N= 1.129284410851D+02 E-N=-9.670518707846D+02  KE= 3.101765482086D+02
 Orbital energies and kinetic energies (alpha):
                                 1                 2
   1         O               -24.812315         37.082419
   2         O               -24.760410         37.084966
   3         O               -19.200962         29.032856
   4         O               -10.469100         15.896430
   5         O                -1.332324          3.573251
   6         O                -1.235646          3.725306
   7         O                -1.060910          2.827951
   8         O                -0.696477          3.074765
   9         O                -0.608544          2.801819
  10         O                -0.563978          2.537394
  11         O                -0.540443          2.894847
  12         O                -0.469264          3.137986
  13         O                -0.468544          3.141264
  14         O                -0.447921          3.074937
  15         O                -0.377670          2.543172
  16         O                -0.334272          2.658910
  17         V                -0.062101          2.614831
  18         V                 0.006990          3.510775
  19         V                 0.216003          3.307827
  20         V                 0.291673          2.460095
  21         V                 0.468403          2.280992
  22         V                 0.475798          1.914035
  23         V                 0.483004          1.907089
  24         V                 0.552229          2.932960
  25         V                 0.840612          2.662998
  26         V                 0.938525          3.566070
  27         V                 0.944230          3.459847
  28         V                 1.040935          3.260775
  29         V                 1.083645          4.246092
  30         V                 1.118099          3.447773
  31         V                 1.222400          3.065665
  32         V                 1.260034          4.279133
  33         V                 1.267558          4.060335
  34         V                 1.334250          3.680441
  35         V                 1.356828          2.684213
  36         V                 1.372993          2.848230
  37         V                 1.555197          3.641085
  38         V                 1.617808          3.438930
  39         V                 1.742181          3.152424
  40         V                 1.754200          2.834449
  41         V                 1.774611          2.845245
  42         V                 1.793285          3.070975
  43         V                 1.807832          2.827376
  44         V                 1.825249          3.090432
  45         V                 1.861354          3.338261
  46         V                 1.914208          3.346058
  47         V                 1.932604          3.327474
  48         V                 2.014561          3.478004
  49         V                 2.101252          3.655610
  50         V                 2.446349          3.819206
  51         V                 2.562413          3.917974
  52         V                 2.608241          5.299148
  53         V                 2.690181          5.221430
  54         V                 2.878529          4.907024
  55         V                 2.982464          5.605063
  56         V                 3.030915          4.751711
  57         V                 3.703618         10.379330
  58         V                 4.094956         11.402534
  59         V                 4.284530         10.057437
  60         V                 4.603172         12.566299
 Total kinetic energy from orbitals= 3.101765482086D+02
 Unable to Open any file for archive entry.
 1\1\GINC-SPARTAN-BM162\SP\RB3LYP\6-31G(d)\C1F2O1\AKHALILOV\20-Mar-2025
 \0\\# B3LYP/6-31G(d) pop=full density=current\\CF2O Time step 20\\0,1\
 F,0,1.190609,-0.580865,0.04566\C,0,0.056549,0.071673,-0.047837\O,0,0.0
 01854,1.333167,-0.082429\F,0,-1.227887,-0.586811,0.053953\\Version=ES6
 4L-G16RevC.01\State=1-A\HF=-312.9743254\RMSD=7.614e-09\Dipole=0.261923
 5,-0.6182368,-0.0074655\Quadrupole=0.0103606,-1.4726776,1.4623171,-0.2
 282358,0.0109714,0.2185414\PG=C01 [X(C1F2O1)]\\@
 The archive entry for this job was punched.


 THE PROGRESS OF RIVERS TO THE SEA IS NOT AS RAPID
 AS THAT OF MAN TO ERROR.
                                              -- VOLTAIRE
 Job cpu time:       0 days  0 hours  0 minutes  2.6 seconds.
 Elapsed time:       0 days  0 hours  0 minutes  0.9 seconds.
 File lengths (MBytes):  RWF=      6 Int=      0 D2E=      0 Chk=      1 Scr=      1
 Normal termination of Gaussian 16 at Thu Mar 20 00:07:45 2025.
