 Entering Gaussian System, Link 0=g16
 Input=CF2O_1000K_step0010.gjf
 Output=CF2O_1000K_step0010.log
 Initial command:
 /apps/easybuild-2022/easybuild/software/Compiler/NVHPC/22.11-CUDA-11.7.0/Gaussian/g16c01-CUDA-11.7.0/g16/l1.exe "/tmp/Gau-264250.inp" -scrdir="/tmp/"
 Default is to use a total of   4 processors:
                                4 via shared-memory
                                1 via Linda
 Entering Link 1 = /apps/easybuild-2022/easybuild/software/Compiler/NVHPC/22.11-CUDA-11.7.0/Gaussian/g16c01-CUDA-11.7.0/g16/l1.exe PID=    264251.
  
 Copyright (c) 1988-2019, Gaussian, Inc.  All Rights Reserved.
  
 This is part of the Gaussian(R) 16 program.  It is based on
 the Gaussian(R) 09 system (copyright 2009, Gaussian, Inc.),
 the Gaussian(R) 03 system (copyright 2003, Gaussian, Inc.),
 the Gaussian(R) 98 system (copyright 1998, Gaussian, Inc.),
 the Gaussian(R) 94 system (copyright 1995, Gaussian, Inc.),
 the Gaussian 92(TM) system (copyright 1992, Gaussian, Inc.),
 the Gaussian 90(TM) system (copyright 1990, Gaussian, Inc.),
 the Gaussian 88(TM) system (copyright 1988, Gaussian, Inc.),
 the Gaussian 86(TM) system (copyright 1986, Carnegie Mellon
 University), and the Gaussian 82(TM) system (copyright 1983,
 Carnegie Mellon University). Gaussian is a federally registered
 trademark of Gaussian, Inc.
  
 This software contains proprietary and confidential information,
 including trade secrets, belonging to Gaussian, Inc.
  
 This software is provided under written license and may be
 used, copied, transmitted, or stored only in accord with that
 written license.
  
 The following legend is applicable only to US Government
 contracts under FAR:
  
                    RESTRICTED RIGHTS LEGEND
  
 Use, reproduction and disclosure by the US Government is
 subject to restrictions as set forth in subparagraphs (a)
 and (c) of the Commercial Computer Software - Restricted
 Rights clause in FAR 52.227-19.
  
 Gaussian, Inc.
 340 Quinnipiac St., Bldg. 40, Wallingford CT 06492
  
  
 ---------------------------------------------------------------
 Warning -- This program may not be used in any manner that
 competes with the business of Gaussian, Inc. or will provide
 assistance to any competitor of Gaussian, Inc.  The licensee
 of this program is prohibited from giving any competitor of
 Gaussian, Inc. access to this program.  By using this program,
 the user acknowledges that Gaussian, Inc. is engaged in the
 business of creating and licensing software in the field of
 computational chemistry and represents and warrants to the
 licensee that it is not a competitor of Gaussian, Inc. and that
 it will not use this program in any manner prohibited above.
 ---------------------------------------------------------------
  

 Cite this work as:
 Gaussian 16, Revision C.01,
 M. J. Frisch, G. W. Trucks, H. B. Schlegel, G. E. Scuseria, 
 M. A. Robb, J. R. Cheeseman, G. Scalmani, V. Barone, 
 G. A. Petersson, H. Nakatsuji, X. Li, M. Caricato, A. V. Marenich, 
 J. Bloino, B. G. Janesko, R. Gomperts, B. Mennucci, H. P. Hratchian, 
 J. V. Ortiz, A. F. Izmaylov, J. L. Sonnenberg, D. Williams-Young, 
 F. Ding, F. Lipparini, F. Egidi, J. Goings, B. Peng, A. Petrone, 
 T. Henderson, D. Ranasinghe, V. G. Zakrzewski, J. Gao, N. Rega, 
 G. Zheng, W. Liang, M. Hada, M. Ehara, K. Toyota, R. Fukuda, 
 J. Hasegawa, M. Ishida, T. Nakajima, Y. Honda, O. Kitao, H. Nakai, 
 T. Vreven, K. Throssell, J. A. Montgomery, Jr., J. E. Peralta, 
 F. Ogliaro, M. J. Bearpark, J. J. Heyd, E. N. Brothers, K. N. Kudin, 
 V. N. Staroverov, T. A. Keith, R. Kobayashi, J. Normand, 
 K. Raghavachari, A. P. Rendell, J. C. Burant, S. S. Iyengar, 
 J. Tomasi, M. Cossi, J. M. Millam, M. Klene, C. Adamo, R. Cammi, 
 J. W. Ochterski, R. L. Martin, K. Morokuma, O. Farkas, 
 J. B. Foresman, and D. J. Fox, Gaussian, Inc., Wallingford CT, 2019.
 
 ******************************************
 Gaussian 16:  ES64L-G16RevC.01  3-Jul-2019
                20-Mar-2025 
 ******************************************
 %chk=CF2O_1000K_step0010.chk
 %mem=8GB
 %nprocshared=4
 Will use up to    4 processors via shared memory.
 -----------------------------------------
 # B3LYP/6-31G(d) pop=full density=current
 -----------------------------------------
 1/30=1,38=1,172=1/1;
 2/12=2,17=6,18=5,40=1/2;
 3/5=1,6=6,7=1,11=2,25=1,30=1,74=-5/1,2,3;
 4//1;
 5/5=2,38=5/2;
 6/7=3,22=-1,28=1/1;
 99/5=1,9=1/99;
 -----------------
 CF2O Time step 10
 -----------------
 Symbolic Z-matrix:
 Charge =  0 Multiplicity = 1
 F                     1.1745   -0.58083   0.04158 
 C                     0.0305    0.0767   -0.02805 
 O                     0.00329   1.32085  -0.08682 
 F                    -1.19653  -0.57965   0.04923 
 
                          Input orientation:                          
 ---------------------------------------------------------------------
 Center     Atomic      Atomic             Coordinates (Angstroms)
 Number     Number       Type             X           Y           Z
 ---------------------------------------------------------------------
      1          9           0        1.174500   -0.580831    0.041581
      2          6           0        0.030503    0.076702   -0.028048
      3          8           0        0.003287    1.320845   -0.086822
      4          9           0       -1.196534   -0.579647    0.049232
 ---------------------------------------------------------------------
                    Distance matrix (angstroms):
                    1          2          3          4
     1  F    0.000000
     2  C    1.321335   0.000000
     3  O    2.237096   1.245828   0.000000
     4  F    2.371047   1.393695   2.251655   0.000000
 Stoichiometry    CF2O
 Framework group  C1[X(CF2O)]
 Deg. of freedom     6
 Full point group                 C1      NOp   1
 Largest Abelian subgroup         C1      NOp   1
 Largest concise Abelian subgroup C1      NOp   1
                         Standard orientation:                         
 ---------------------------------------------------------------------
 Center     Atomic      Atomic             Coordinates (Angstroms)
 Number     Number       Type             X           Y           Z
 ---------------------------------------------------------------------
      1          9           0       -1.155318   -0.636045   -0.005103
      2          6           0       -0.032055    0.059262    0.022369
      3          8           0       -0.042661    1.304726   -0.005815
      4          9           0        1.214610   -0.563219   -0.004642
 ---------------------------------------------------------------------
 Rotational constants (GHZ):          12.3358921           9.4577803           5.3542407
 Standard basis: 6-31G(d) (6D, 7F)
 There are    60 symmetry adapted cartesian basis functions of A   symmetry.
 There are    60 symmetry adapted basis functions of A   symmetry.
    60 basis functions,   112 primitive gaussians,    60 cartesian basis functions
    16 alpha electrons       16 beta electrons
       nuclear repulsion energy       114.5485866249 Hartrees.
 NAtoms=    4 NActive=    4 NUniq=    4 SFac= 1.00D+00 NAtFMM=   60 NAOKFM=F Big=F
 Integral buffers will be    131072 words long.
 Raffenetti 2 integral format.
 Two-electron integral symmetry is turned on.
 One-electron integrals computed using PRISM.
 NBasis=    60 RedAO= T EigKep=  4.37D-03  NBF=    60
 NBsUse=    60 1.00D-06 EigRej= -1.00D+00 NBFU=    60
 ExpMin= 1.69D-01 ExpMax= 7.00D+03 ExpMxC= 1.05D+03 IAcc=3 IRadAn=         5 AccDes= 0.00D+00
 Harris functional with IExCor=  402 and IRadAn=       5 diagonalized for initial guess.
 HarFok:  IExCor=  402 AccDes= 0.00D+00 IRadAn=         5 IDoV= 1 UseB2=F ITyADJ=14
 ICtDFT=  3500011 ScaDFX=  1.000000  1.000000  1.000000  1.000000
 FoFCou: FMM=F IPFlag=           0 FMFlag=      100000 FMFlg1=           0
         NFxFlg=           0 DoJE=T BraDBF=F KetDBF=T FulRan=T
         wScrn=  0.000000 ICntrl=       500 IOpCl=  0 I1Cent=   200000004 NGrid=           0
         NMat0=    1 NMatS0=      1 NMatT0=    0 NMatD0=    1 NMtDS0=    0 NMtDT0=    0
 Petite list used in FoFCou.
 Keep R1 ints in memory in canonical form, NReq=5215649.
 Requested convergence on RMS density matrix=1.00D-08 within 128 cycles.
 Requested convergence on MAX density matrix=1.00D-06.
 Requested convergence on             energy=1.00D-06.
 No special actions if energy rises.
 Integral accuracy reduced to 1.0D-05 until final iterations.
 Initial convergence to 1.0D-05 achieved.  Increase integral accuracy.
 SCF Done:  E(RB3LYP) =  -312.986125804     A.U. after   14 cycles
            NFock= 14  Conv=0.39D-08     -V/T= 2.0087

 **********************************************************************

            Population analysis using the SCF Density.

 **********************************************************************

 Orbital symmetries:
       Occupied  (A) (A) (A) (A) (A) (A) (A) (A) (A) (A) (A) (A)
                 (A) (A) (A) (A)
       Virtual   (A) (A) (A) (A) (A) (A) (A) (A) (A) (A) (A) (A)
                 (A) (A) (A) (A) (A) (A) (A) (A) (A) (A) (A) (A)
                 (A) (A) (A) (A) (A) (A) (A) (A) (A) (A) (A) (A)
                 (A) (A) (A) (A) (A) (A) (A) (A)
 The electronic state is 1-A.
 Alpha  occ. eigenvalues --  -24.80061 -24.77215 -19.19538 -10.46417  -1.32373
 Alpha  occ. eigenvalues --   -1.25808  -1.06657  -0.69221  -0.61754  -0.56217
 Alpha  occ. eigenvalues --   -0.53727  -0.47887  -0.47308  -0.45335  -0.37844
 Alpha  occ. eigenvalues --   -0.33362
 Alpha virt. eigenvalues --   -0.04859   0.02659   0.23731   0.30010   0.46585
 Alpha virt. eigenvalues --    0.47460   0.47867   0.56554   0.83982   0.94221
 Alpha virt. eigenvalues --    0.94891   1.04119   1.08987   1.11800   1.22321
 Alpha virt. eigenvalues --    1.26237   1.27515   1.33503   1.35706   1.36972
 Alpha virt. eigenvalues --    1.57668   1.62997   1.74888   1.75900   1.77626
 Alpha virt. eigenvalues --    1.79667   1.79872   1.83643   1.88429   1.91667
 Alpha virt. eigenvalues --    1.94152   2.05089   2.10596   2.50016   2.57366
 Alpha virt. eigenvalues --    2.66042   2.71631   2.92359   2.99817   3.04328
 Alpha virt. eigenvalues --    3.72503   4.12826   4.36035   4.60342
     Molecular Orbital Coefficients:
                           1         2         3         4         5
                           O         O         O         O         O
     Eigenvalues --   -24.80061 -24.77215 -19.19538 -10.46417  -1.32373
   1 1   F  1S          0.99298   0.00005   0.00001   0.00004  -0.20123
   2        2S          0.01953   0.00031   0.00006   0.00071   0.45581
   3        2PX         0.00072   0.00003   0.00002   0.00011   0.09104
   4        2PY         0.00037   0.00003  -0.00004   0.00006   0.05185
   5        2PZ         0.00002   0.00000   0.00000   0.00000   0.00225
   6        3S          0.01559  -0.00096  -0.00012  -0.00240   0.40560
   7        3PX        -0.00037  -0.00019  -0.00007  -0.00185   0.04703
   8        3PY        -0.00018  -0.00025   0.00019  -0.00108   0.02431
   9        3PZ        -0.00001  -0.00001  -0.00001  -0.00005   0.00105
  10        4XX        -0.00842   0.00010   0.00009  -0.00042   0.02429
  11        4YY        -0.00818   0.00016  -0.00007   0.00029   0.01145
  12        4ZZ        -0.00805   0.00026   0.00006   0.00065   0.00825
  13        4XY        -0.00026  -0.00008  -0.00003  -0.00066   0.01040
  14        4XZ        -0.00001  -0.00000   0.00000  -0.00003   0.00048
  15        4YZ        -0.00001  -0.00001   0.00000  -0.00002   0.00027
  16 2   C  1S          0.00002   0.00002   0.00004   0.99302  -0.08691
  17        2S          0.00041   0.00014   0.00065   0.04589   0.16757
  18        2PX        -0.00058   0.00047   0.00002  -0.00041  -0.06760
  19        2PY        -0.00033  -0.00024   0.00005  -0.00151  -0.06071
  20        2PZ        -0.00002  -0.00002  -0.00000  -0.00004  -0.00303
  21        3S         -0.00049  -0.00033  -0.00298  -0.00358   0.03023
  22        3PX         0.00082  -0.00078   0.00001  -0.00036   0.00508
  23        3PY         0.00048   0.00038  -0.00216  -0.00007  -0.00046
  24        3PZ         0.00001   0.00000   0.00005  -0.00003   0.00082
  25        4XX         0.00038   0.00064   0.00002  -0.00766   0.00940
  26        4YY         0.00021   0.00027  -0.00068  -0.00816  -0.00564
  27        4ZZ        -0.00003   0.00003   0.00004  -0.00944  -0.01754
  28        4XY         0.00018  -0.00024  -0.00001   0.00026   0.01480
  29        4XZ         0.00001  -0.00001  -0.00000   0.00001   0.00050
  30        4YZ         0.00000   0.00000   0.00002   0.00001   0.00043
  31 3   O  1S          0.00002   0.00002   0.99283  -0.00018  -0.02318
  32        2S          0.00014   0.00017   0.02580  -0.00004   0.05150
  33        2PX         0.00002  -0.00001  -0.00000  -0.00002  -0.00424
  34        2PY         0.00001   0.00001  -0.00116  -0.00007  -0.03099
  35        2PZ         0.00000  -0.00000   0.00003  -0.00000   0.00038
  36        3S         -0.00051  -0.00059   0.01237  -0.00005   0.04175
  37        3PX        -0.00012   0.00012   0.00002   0.00008  -0.00386
  38        3PY         0.00024   0.00029  -0.00120   0.00077  -0.01565
  39        3PZ        -0.00001  -0.00001   0.00002  -0.00002  -0.00007
  40        4XX         0.00003   0.00003  -0.00791  -0.00010  -0.00157
  41        4YY        -0.00008  -0.00008  -0.00752  -0.00006   0.00744
  42        4ZZ         0.00010   0.00013  -0.00793  -0.00002  -0.00036
  43        4XY        -0.00004   0.00001  -0.00001   0.00001   0.00195
  44        4XZ        -0.00000   0.00000   0.00000  -0.00000  -0.00007
  45        4YZ         0.00000   0.00000  -0.00001   0.00001  -0.00008
  46 4   F  1S          0.00004   0.99301   0.00001  -0.00000  -0.07038
  47        2S          0.00027   0.01958   0.00006   0.00033   0.15776
  48        2PX        -0.00004  -0.00068  -0.00001  -0.00012  -0.03749
  49        2PY         0.00003   0.00025  -0.00003   0.00003   0.01339
  50        2PZ         0.00000   0.00002   0.00000   0.00000   0.00065
  51        3S         -0.00081   0.01529  -0.00008  -0.00074   0.14257
  52        3PX         0.00016   0.00034   0.00008   0.00136  -0.02724
  53        3PY        -0.00017  -0.00012   0.00017  -0.00056   0.00712
  54        3PZ        -0.00001  -0.00001  -0.00001  -0.00003   0.00025
  55        4XX         0.00007  -0.00838   0.00004  -0.00063   0.01436
  56        4YY         0.00017  -0.00807  -0.00006   0.00013   0.00252
  57        4ZZ         0.00022  -0.00799   0.00006   0.00036   0.00199
  58        4XY         0.00003   0.00023   0.00004   0.00049  -0.00488
  59        4XZ         0.00000   0.00001   0.00000   0.00003  -0.00024
  60        4YZ        -0.00000  -0.00000   0.00000  -0.00001   0.00007
                           6         7         8         9        10
                           O         O         O         O         O
     Eigenvalues --    -1.25808  -1.06657  -0.69221  -0.61754  -0.56217
   1 1   F  1S          0.08626   0.03880   0.07708  -0.03389  -0.00021
   2        2S         -0.19593  -0.08865  -0.15985   0.06433  -0.00015
   3        2PX        -0.02343   0.00079   0.37401  -0.18799  -0.01210
   4        2PY        -0.01961   0.02528   0.16692  -0.28823  -0.00583
   5        2PZ        -0.00093  -0.00035   0.00918  -0.00947   0.46733
   6        3S         -0.18108  -0.09082  -0.27740   0.13645   0.00198
   7        3PX        -0.00503   0.00532   0.21486  -0.09780  -0.00730
   8        3PY        -0.00827   0.02020   0.09093  -0.17147  -0.00292
   9        3PZ        -0.00056  -0.00023   0.00507  -0.00577   0.29797
  10        4XX        -0.00324  -0.00027   0.02491  -0.00294  -0.00104
  11        4YY        -0.00518   0.00192   0.00310  -0.01206  -0.00037
  12        4ZZ        -0.00397  -0.00194  -0.00006  -0.00133   0.00071
  13        4XY        -0.00161   0.00507   0.01178  -0.01055  -0.00034
  14        4XZ        -0.00011  -0.00002   0.00073  -0.00041   0.02176
  15        4YZ        -0.00011   0.00011   0.00029  -0.00051   0.01151
  16 2   C  1S         -0.03415  -0.08873  -0.12386  -0.02402  -0.00227
  17        2S          0.06731   0.19287   0.30097   0.05773   0.00544
  18        2PX         0.13279  -0.00278  -0.05726   0.35263   0.00038
  19        2PY        -0.00770   0.23045  -0.19622  -0.02906   0.00096
  20        2PZ        -0.00104  -0.00362  -0.00134  -0.00011   0.30652
  21        3S          0.01521   0.03139   0.16233   0.04339   0.00237
  22        3PX        -0.00732   0.00032   0.00411   0.03836  -0.00120
  23        3PY        -0.00248  -0.01115  -0.02475  -0.02078  -0.00252
  24        3PZ         0.00032   0.00084   0.00157   0.00018   0.15249
  25        4XX         0.00333  -0.02773   0.00413  -0.00191   0.00023
  26        4YY        -0.00320   0.02272  -0.01333  -0.00033   0.00013
  27        4ZZ        -0.00598  -0.01402  -0.01321  -0.00074  -0.00124
  28        4XY        -0.02363  -0.00181   0.00718  -0.01987   0.00011
  29        4XZ        -0.00085  -0.00001   0.00020  -0.00098  -0.00813
  30        4YZ         0.00001  -0.00133   0.00064   0.00008  -0.00801
  31 3   O  1S         -0.01475  -0.19497   0.05678   0.00949  -0.00027
  32        2S          0.03227   0.43066  -0.12586  -0.02247  -0.00050
  33        2PX         0.01113   0.00037  -0.01119   0.11716   0.00045
  34        2PY        -0.01752  -0.15838  -0.05257  -0.01645   0.00381
  35        2PZ         0.00027   0.00366   0.00021   0.00020   0.14906
  36        3S          0.02764   0.39556  -0.16240  -0.02156   0.00577
  37        3PX         0.00864  -0.00048  -0.00822   0.06971   0.00074
  38        3PY        -0.00765  -0.05593  -0.03161  -0.01084  -0.00012
  39        3PZ         0.00002   0.00119  -0.00009   0.00024   0.06792
  40        4XX        -0.00077  -0.00953   0.00048  -0.00051  -0.00038
  41        4YY         0.00311   0.01068   0.01134   0.00161  -0.00075
  42        4ZZ        -0.00046  -0.00577   0.00167  -0.00009   0.00006
  43        4XY        -0.00386  -0.00009   0.00197  -0.01365  -0.00008
  44        4XZ         0.00011   0.00000  -0.00007   0.00035  -0.00037
  45        4YZ        -0.00007  -0.00054  -0.00005  -0.00002  -0.01326
  46 4   F  1S         -0.20929   0.04455   0.05353   0.05752  -0.00017
  47        2S          0.47103  -0.10071  -0.10997  -0.11152  -0.00054
  48        2PX        -0.07519  -0.00270  -0.23674  -0.34902   0.00618
  49        2PY         0.03672   0.02088   0.05705   0.22973  -0.00115
  50        2PZ         0.00180  -0.00026   0.00468   0.00977   0.26241
  51        3S          0.44191  -0.10649  -0.19226  -0.22499   0.00294
  52        3PX        -0.04104  -0.00462  -0.14246  -0.20001   0.00343
  53        3PY         0.01965   0.01600   0.02889   0.13800   0.00034
  54        3PZ         0.00106  -0.00022   0.00251   0.00588   0.16365
  55        4XX         0.02124   0.00045   0.02185   0.01813  -0.00087
  56        4YY         0.00936   0.00069   0.00065   0.00953  -0.00034
  57        4ZZ         0.00737  -0.00171   0.00101   0.00279   0.00008
  58        4XY        -0.00813  -0.00414  -0.00576  -0.01151   0.00001
  59        4XZ        -0.00045   0.00000  -0.00046  -0.00060  -0.01352
  60        4YZ         0.00022   0.00008   0.00008   0.00039   0.00495
                          11        12        13        14        15
                           O         O         O         O         O
     Eigenvalues --    -0.53727  -0.47887  -0.47308  -0.45335  -0.37844
   1 1   F  1S          0.00472  -0.00020  -0.00175  -0.00393  -0.00017
   2        2S         -0.00365  -0.00028  -0.00825   0.00423   0.00019
   3        2PX         0.26812  -0.00909   0.29795   0.03063   0.00336
   4        2PY        -0.33473   0.02300  -0.32457   0.24951   0.00720
   5        2PZ         0.00506  -0.39498  -0.02427   0.00378  -0.23246
   6        3S         -0.03752   0.00220   0.05261   0.04931   0.00159
   7        3PX         0.16205  -0.00591   0.20558   0.02417   0.00328
   8        3PY        -0.21611   0.01634  -0.20801   0.16087   0.00375
   9        3PZ         0.00289  -0.27718  -0.01641   0.00311  -0.16914
  10        4XX         0.01657  -0.00062   0.00626  -0.00435   0.00011
  11        4YY        -0.00971   0.00065  -0.01625  -0.00209  -0.00020
  12        4ZZ         0.00158  -0.00094  -0.00574  -0.00266  -0.00025
  13        4XY        -0.00987   0.00058  -0.00367   0.00309  -0.00004
  14        4XZ         0.00040  -0.01258  -0.00050   0.00008  -0.00367
  15        4YZ        -0.00030  -0.00788  -0.00077   0.00003   0.00112
  16 2   C  1S          0.04604   0.00038  -0.01639   0.04197  -0.00119
  17        2S         -0.12547  -0.00140   0.04613  -0.11250   0.00172
  18        2PX        -0.01763   0.00127  -0.02560   0.01459  -0.00002
  19        2PY        -0.21628  -0.00583   0.10649  -0.21854  -0.00307
  20        2PZ         0.00122   0.06866   0.00440  -0.00265   0.25783
  21        3S         -0.09570  -0.00034   0.01460  -0.03820   0.01235
  22        3PX         0.01478   0.00161   0.07796   0.02771  -0.00021
  23        3PY        -0.13189  -0.00232   0.02034   0.09912   0.00856
  24        3PZ         0.00012   0.04374   0.00318  -0.00178   0.09667
  25        4XX        -0.01099   0.00043  -0.01231   0.03920   0.00011
  26        4YY         0.02370  -0.00011   0.00513  -0.02099   0.00026
  27        4ZZ         0.00301  -0.00014  -0.00118   0.00161  -0.00051
  28        4XY         0.00793  -0.00258   0.03157   0.01139   0.00005
  29        4XZ        -0.00011   0.03052   0.00183   0.00023  -0.00164
  30        4YZ         0.00050   0.00234   0.00012  -0.00028   0.03844
  31 3   O  1S         -0.09148  -0.00187   0.02990  -0.05233  -0.00018
  32        2S          0.18682   0.00363  -0.06294   0.12166   0.00146
  33        2PX         0.00142  -0.00811   0.08684   0.04655   0.00035
  34        2PY         0.28537   0.01062  -0.16431   0.38470   0.02306
  35        2PZ        -0.00670   0.05728   0.00924  -0.01589   0.51449
  36        3S          0.41883   0.00948  -0.12787   0.14836  -0.00608
  37        3PX        -0.00073  -0.00722   0.04967   0.02875   0.00031
  38        3PY         0.11164   0.00477  -0.08383   0.22805   0.01715
  39        3PZ        -0.00183   0.03074   0.00504  -0.01093   0.34924
  40        4XX        -0.00888  -0.00019   0.00039   0.00771   0.00058
  41        4YY        -0.02679  -0.00084   0.01089  -0.02068  -0.00148
  42        4ZZ        -0.00350   0.00005  -0.00026   0.00465   0.00186
  43        4XY         0.00092   0.00063  -0.00239  -0.00244  -0.00003
  44        4XZ        -0.00006   0.00256   0.00011   0.00005  -0.00019
  45        4YZ         0.00062  -0.00418  -0.00069   0.00127  -0.03184
  46 4   F  1S         -0.00087   0.00041  -0.00336   0.00009  -0.00015
  47        2S          0.00758  -0.00030   0.01350   0.00334   0.00015
  48        2PX        -0.05965  -0.01104   0.36554   0.07353  -0.00419
  49        2PY        -0.24009  -0.02840   0.29439   0.43438   0.00733
  50        2PZ        -0.00127   0.53708   0.02868   0.01046  -0.26731
  51        3S         -0.02049  -0.00271  -0.02220   0.00389   0.00137
  52        3PX        -0.03005  -0.00711   0.24791   0.04863  -0.00371
  53        3PY        -0.15508  -0.01958   0.19147   0.28334   0.00393
  54        3PZ        -0.00140   0.36838   0.01919   0.00740  -0.19313
  55        4XX         0.00713   0.00060  -0.01130  -0.00429   0.00017
  56        4YY        -0.00276  -0.00073   0.01372   0.00673  -0.00018
  57        4ZZ         0.00215   0.00100   0.00441   0.00098  -0.00030
  58        4XY         0.00992   0.00091  -0.00610  -0.00787   0.00004
  59        4XZ         0.00002  -0.01929  -0.00075  -0.00024   0.00475
  60        4YZ        -0.00027   0.00886   0.00081   0.00030   0.00095
                          16        17        18        19        20
                           O         V         V         V         V
     Eigenvalues --    -0.33362  -0.04859   0.02659   0.23731   0.30010
   1 1   F  1S         -0.01075   0.00756   0.05973  -0.06777   0.02574
   2        2S          0.01947  -0.01445  -0.12207   0.14643  -0.06814
   3        2PX         0.03466  -0.03744  -0.30641   0.14167  -0.17963
   4        2PY         0.17536  -0.01118  -0.07695   0.24083   0.11705
   5        2PZ         0.00139  -0.22348   0.02598   0.00877  -0.01180
   6        3S          0.08563  -0.06088  -0.48857   0.66857  -0.27828
   7        3PX         0.03442  -0.04193  -0.35038   0.26991  -0.21058
   8        3PY         0.13225  -0.01627  -0.13126   0.33211   0.15722
   9        3PZ         0.00168  -0.18715   0.02049   0.00921  -0.01161
  10        4XX        -0.00423   0.00079   0.01178   0.00861   0.01848
  11        4YY        -0.00221   0.00046  -0.00171  -0.01935  -0.00180
  12        4ZZ        -0.00211   0.00343   0.01733  -0.00868  -0.01874
  13        4XY         0.00486  -0.00107  -0.00643  -0.01218   0.00245
  14        4XZ        -0.00006   0.01562  -0.00301   0.00004   0.00216
  15        4YZ         0.00016   0.00698  -0.00184  -0.00134  -0.00033
  16 2   C  1S         -0.00116  -0.02266  -0.15437   0.01919   0.03656
  17        2S          0.00374   0.04056   0.28079   0.04993   0.10559
  18        2PX         0.07682   0.00740   0.09054   0.76936  -0.14012
  19        2PY         0.00295  -0.03545  -0.31322  -0.06422  -0.39415
  20        2PZ        -0.00029   0.62126  -0.09804   0.00657   0.00648
  21        3S         -0.01005   0.19389   1.42489  -0.62024  -1.71043
  22        3PX         0.11717   0.00049   0.02489   0.98470  -0.20217
  23        3PY        -0.00322  -0.01404  -0.14536  -0.20004  -1.94666
  24        3PZ         0.00014   0.44489  -0.08574   0.01467   0.03784
  25        4XX        -0.00256  -0.00512  -0.03850  -0.00849  -0.02626
  26        4YY         0.00144  -0.00354  -0.01340   0.01042   0.02639
  27        4ZZ        -0.00018   0.00490   0.02993  -0.00551  -0.01420
  28        4XY         0.04261  -0.00030  -0.00172   0.02613  -0.01020
  29        4XZ        -0.00018   0.00058   0.00004   0.00350  -0.00065
  30        4YZ         0.00003  -0.02446   0.00277  -0.00057  -0.00257
  31 3   O  1S         -0.00058   0.00487   0.03622  -0.02484  -0.11315
  32        2S          0.00193  -0.00897  -0.06478   0.04307   0.16124
  33        2PX         0.61858  -0.00223  -0.02868  -0.28473   0.05486
  34        2PY        -0.00306   0.01772   0.16364  -0.06611  -0.21223
  35        2PZ         0.00040  -0.40838   0.05207  -0.00072   0.00914
  36        3S          0.00455  -0.04868  -0.39173   0.37878   2.04826
  37        3PX         0.40381  -0.00203  -0.02882  -0.38145   0.08679
  38        3PY        -0.00324   0.02893   0.27315  -0.21206  -0.98063
  39        3PZ         0.00030  -0.39019   0.05165   0.00140   0.02421
  40        4XX        -0.00041   0.00113   0.00763  -0.00705  -0.04565
  41        4YY         0.00053  -0.00118  -0.00606   0.00422   0.00941
  42        4ZZ         0.00030   0.00304   0.02156  -0.01127  -0.05432
  43        4XY        -0.02732  -0.00008  -0.00172  -0.02919   0.00598
  44        4XZ         0.00075   0.00029   0.00002   0.00175  -0.00039
  45        4YZ        -0.00001  -0.00553   0.00270  -0.00057  -0.00124
  46 4   F  1S          0.01050   0.00756   0.06303   0.05221  -0.00232
  47        2S         -0.01987  -0.01500  -0.13438  -0.12350  -0.00804
  48        2PX         0.06399   0.04302   0.35317   0.18661   0.09792
  49        2PY        -0.20437  -0.01151  -0.08914  -0.15921   0.19782
  50        2PZ        -0.00123  -0.20421   0.02161  -0.01379  -0.00607
  51        3S         -0.08034  -0.05646  -0.47340  -0.45445   0.02419
  52        3PX         0.05927   0.04677   0.39223   0.23456   0.06831
  53        3PY        -0.14975  -0.01535  -0.13180  -0.17987   0.26235
  54        3PZ        -0.00162  -0.16765   0.01656  -0.01168  -0.00570
  55        4XX         0.00086   0.00024   0.00769   0.00840   0.01439
  56        4YY         0.00290   0.00048  -0.00116   0.00897  -0.00801
  57        4ZZ         0.00189   0.00290   0.01353  -0.00797  -0.01860
  58        4XY         0.00556   0.00091   0.00476  -0.01974   0.00688
  59        4XZ         0.00004  -0.01483   0.00276  -0.00156  -0.00147
  60        4YZ        -0.00018   0.00503  -0.00126   0.00137  -0.00105
                          21        22        23        24        25
                           V         V         V         V         V
     Eigenvalues --     0.46585   0.47460   0.47867   0.56554   0.83982
   1 1   F  1S          0.01845  -0.00274  -0.02771  -0.00027   0.00204
   2        2S         -0.00406   0.00038   0.00677  -0.02428   0.06489
   3        2PX         0.18182  -0.01599  -0.19520   0.03380  -0.07046
   4        2PY         0.19481  -0.01826  -0.02213   0.00883   0.10913
   5        2PZ        -0.00231  -0.11387   0.00490   0.00297  -0.00481
   6        3S         -0.63171   0.07904   0.75964   0.02759  -0.12158
   7        3PX        -0.24829   0.03048   0.10779  -0.03204   0.01541
   8        3PY        -0.03499   0.01063   0.23367  -0.11539  -0.06637
   9        3PZ        -0.01504  -0.13338   0.00886   0.00072   0.00188
  10        4XX        -0.10086   0.01030   0.02895   0.01318   0.04970
  11        4YY         0.01415  -0.00071   0.01589  -0.05435   0.00068
  12        4ZZ         0.05660  -0.00803  -0.04349  -0.00016   0.01284
  13        4XY        -0.08012   0.00996   0.07637  -0.04444  -0.02078
  14        4XZ        -0.00722  -0.03357   0.00277   0.00093   0.00178
  15        4YZ        -0.00453  -0.02384   0.00146  -0.00057  -0.00032
  16 2   C  1S          0.02805  -0.00102  -0.01032   0.06097   0.03895
  17        2S         -1.02930   0.06503  -0.07544  -0.98757   0.43758
  18        2PX         0.11148  -0.01630  -0.71877  -0.03471  -0.01258
  19        2PY         0.59577  -0.05039   0.09119  -0.72748   0.27782
  20        2PZ        -0.07704  -0.92777   0.00893   0.00973  -0.00795
  21        3S          1.65860  -0.14467   0.16479   1.46309   0.03544
  22        3PX        -0.14327   0.03351   2.07970   0.08537   0.00129
  23        3PY        -1.15770   0.09975  -0.12625   1.10001  -0.05639
  24        3PZ         0.08992   1.34888  -0.01667  -0.02242   0.00025
  25        4XX         0.07689  -0.01074   0.00041  -0.07416  -0.02562
  26        4YY        -0.05260  -0.00095  -0.02743   0.15515   0.26362
  27        4ZZ        -0.05051   0.00525   0.00492  -0.09007  -0.05776
  28        4XY         0.03576  -0.00439  -0.09498  -0.00351  -0.00379
  29        4XZ         0.00146   0.00162  -0.00133   0.00006   0.00036
  30        4YZ         0.00222  -0.00402  -0.00003  -0.00494  -0.00811
  31 3   O  1S          0.00533  -0.00091   0.00289  -0.01610   0.00906
  32        2S         -0.07194   0.00259  -0.01646   0.11258  -0.50362
  33        2PX        -0.00851  -0.00106  -0.16169  -0.00225   0.02124
  34        2PY         0.02243  -0.00122   0.02399  -0.47882  -0.66070
  35        2PZ        -0.00266  -0.11209   0.00193   0.00928   0.01128
  36        3S          0.23235   0.00438   0.03224  -0.84519   0.61886
  37        3PX         0.01368  -0.00448  -0.34628  -0.01718  -0.02544
  38        3PY         0.12180  -0.02170   0.01310   0.17030   1.22291
  39        3PZ        -0.01087  -0.17433   0.00246  -0.00302  -0.02342
  40        4XX        -0.02229   0.00034  -0.00860   0.06027  -0.19337
  41        4YY        -0.01317   0.00409   0.01106  -0.18206  -0.21626
  42        4ZZ        -0.01066  -0.00309  -0.00240   0.07848  -0.18573
  43        4XY        -0.00934   0.00126   0.05152   0.00533   0.00173
  44        4XZ         0.00017  -0.00038   0.00039  -0.00005  -0.00003
  45        4YZ         0.00383   0.05271  -0.00090   0.00690   0.00044
  46 4   F  1S          0.01964  -0.00215   0.03771   0.00119   0.00194
  47        2S         -0.05837   0.00419  -0.02937  -0.04322   0.08788
  48        2PX        -0.10024   0.00497  -0.18786  -0.06044   0.06049
  49        2PY         0.12862  -0.01194   0.03931   0.00157   0.11350
  50        2PZ        -0.00506  -0.11837  -0.00121   0.00260  -0.00440
  51        3S         -0.41355   0.04267  -0.88097  -0.01589  -0.15113
  52        3PX         0.25983  -0.02788   0.23458   0.04318  -0.03019
  53        3PY         0.00354   0.00164  -0.22515  -0.13029  -0.05899
  54        3PZ        -0.01398  -0.13084  -0.00711   0.00054   0.00224
  55        4XX        -0.10655   0.00927  -0.05968  -0.01442   0.06522
  56        4YY         0.01366  -0.00147   0.00440  -0.05241   0.01019
  57        4ZZ         0.02620  -0.00412   0.05382  -0.00357   0.02338
  58        4XY         0.04104  -0.00445   0.07431   0.05678   0.02522
  59        4XZ         0.00531   0.02716   0.00273  -0.00027  -0.00197
  60        4YZ        -0.00252  -0.01632  -0.00103  -0.00074  -0.00037
                          26        27        28        29        30
                           V         V         V         V         V
     Eigenvalues --     0.94221   0.94891   1.04119   1.08987   1.11800
   1 1   F  1S         -0.00041  -0.01317  -0.03653   0.00702   0.02255
   2        2S         -0.00534  -0.50800  -0.79139   0.13111   0.42444
   3        2PX        -0.00839   0.15154   0.46177  -0.03791  -0.14724
   4        2PY         0.01099   0.23414   0.07839  -0.06665  -0.36842
   5        2PZ         0.16231  -0.01730   0.00796  -0.61048   0.13412
   6        3S          0.01005   0.70644   1.59319  -0.29954  -1.03200
   7        3PX         0.00804  -0.24689  -0.63853   0.07552   0.31355
   8        3PY        -0.01119  -0.32601  -0.17968   0.07658   0.43137
   9        3PZ        -0.09915   0.01225  -0.01224   0.64597  -0.14507
  10        4XX        -0.00028  -0.22303  -0.36259   0.05578   0.16710
  11        4YY        -0.00370  -0.27465  -0.34457   0.05800   0.19407
  12        4ZZ        -0.00424  -0.18749  -0.40575   0.07050   0.23919
  13        4XY        -0.00271  -0.00624   0.01870  -0.00996  -0.04743
  14        4XZ        -0.02357   0.00168   0.00212   0.04076  -0.01040
  15        4YZ         0.03363   0.00370  -0.00045   0.07116  -0.01419
  16 2   C  1S         -0.00053   0.00527   0.02801   0.00054   0.00084
  17        2S         -0.00166   0.06110   0.45100   0.01436   0.02354
  18        2PX         0.00110  -0.11417  -0.05222   0.07694   0.32396
  19        2PY         0.00264  -0.02800  -0.16638   0.00141   0.02254
  20        2PZ         0.06890  -0.00052  -0.00763  -0.00791   0.00268
  21        3S          0.01398  -0.04510  -0.56754  -0.04469  -0.09632
  22        3PX         0.00933  -0.55379   0.11510  -0.19511  -0.85564
  23        3PY         0.00462  -0.01437   0.06259  -0.00601  -0.02231
  24        3PZ        -0.43571  -0.00736   0.00254  -0.01812   0.00138
  25        4XX         0.00119   0.02687   0.25282   0.00667   0.00537
  26        4YY        -0.00184   0.01201   0.07672   0.00223   0.01368
  27        4ZZ         0.00166  -0.00886  -0.12976  -0.00650  -0.01981
  28        4XY        -0.00026   0.02855   0.05259  -0.04832  -0.24065
  29        4XZ        -0.00774  -0.00475   0.00798  -0.24297   0.04839
  30        4YZ        -0.00400   0.00031  -0.00186   0.01119  -0.00505
  31 3   O  1S          0.00066  -0.00059  -0.00356  -0.00033   0.00022
  32        2S          0.00715  -0.00559   0.01754   0.00042   0.02748
  33        2PX         0.01341  -0.77881   0.10135  -0.06984  -0.40690
  34        2PY        -0.01537  -0.02084  -0.05067  -0.00599  -0.02450
  35        2PZ        -0.92267  -0.01520  -0.00010  -0.01593   0.00094
  36        3S         -0.02695   0.02843   0.09733   0.01353  -0.02304
  37        3PX        -0.01844   1.07362  -0.17593   0.15318   0.84794
  38        3PY         0.02618   0.02607   0.05849   0.00605   0.05143
  39        3PZ         1.19608   0.01988  -0.00025   0.02166  -0.00025
  40        4XX         0.00142   0.00019   0.03628   0.00218   0.01102
  41        4YY         0.00428  -0.00497  -0.00246   0.00206   0.01705
  42        4ZZ         0.00288  -0.00669  -0.05953  -0.00582  -0.01275
  43        4XY        -0.00045   0.02866  -0.01738   0.01490   0.14721
  44        4XZ        -0.00093  -0.00401   0.00285  -0.09592   0.01789
  45        4YZ         0.02741   0.00064  -0.00004   0.00047   0.00031
  46 4   F  1S         -0.00059   0.00939  -0.03769  -0.01219  -0.03638
  47        2S         -0.01592   0.39133  -0.83465  -0.22579  -0.66101
  48        2PX         0.00406   0.08677  -0.42313  -0.08100  -0.26375
  49        2PY         0.01755  -0.23164   0.03597   0.05727   0.29361
  50        2PZ         0.13499   0.02100  -0.02221   0.60296  -0.13794
  51        3S          0.02239  -0.50410   1.62039   0.49936   1.54130
  52        3PX        -0.00074  -0.15628   0.51392   0.10633   0.36364
  53        3PY        -0.01944   0.28226  -0.09528  -0.05618  -0.29361
  54        3PZ        -0.07179  -0.01499   0.01928  -0.62608   0.14852
  55        4XX        -0.00524   0.16481  -0.38013  -0.08988  -0.23685
  56        4YY        -0.00961   0.22379  -0.36267  -0.10110  -0.30991
  57        4ZZ        -0.00765   0.13294  -0.39746  -0.11763  -0.35280
  58        4XY         0.00325  -0.01494  -0.02474  -0.00925  -0.03092
  59        4XZ         0.02180   0.00276  -0.00515   0.06536  -0.01749
  60        4YZ         0.03224  -0.00204   0.00340  -0.06200   0.01241
                          31        32        33        34        35
                           V         V         V         V         V
     Eigenvalues --     1.22321   1.26237   1.27515   1.33503   1.35706
   1 1   F  1S         -0.01569   0.00524  -0.00362  -0.03181  -0.00413
   2        2S         -0.18627  -0.01346  -0.06054  -0.47600  -0.05039
   3        2PX        -0.26827  -0.42355   0.01394  -0.04467  -0.00518
   4        2PY         0.37444   0.30065  -0.10570  -0.43939  -0.01325
   5        2PZ        -0.03295   0.01894  -0.58228   0.12612  -0.21909
   6        3S          0.52928  -0.12422   0.12532   1.09005   0.12474
   7        3PX         0.41895   0.59352  -0.00791   0.14451   0.02155
   8        3PY        -0.43581  -0.38097   0.17293   0.79738   0.03296
   9        3PZ         0.04312  -0.02527   0.83429  -0.20058   0.43015
  10        4XX        -0.17370  -0.11877  -0.02177  -0.16386  -0.01615
  11        4YY         0.12759   0.06934  -0.01362  -0.08061   0.00016
  12        4ZZ        -0.19973   0.09930  -0.03126  -0.32379  -0.04840
  13        4XY         0.04285   0.00071  -0.02078  -0.14928  -0.00481
  14        4XZ        -0.00029   0.00563   0.00076   0.04981  -0.35125
  15        4YZ        -0.00416   0.00280  -0.07967   0.02148  -0.24973
  16 2   C  1S         -0.01775   0.00158  -0.00527  -0.02519  -0.00133
  17        2S          0.01586  -0.00384  -0.02400  -0.01347  -0.00083
  18        2PX         0.05509   0.13535  -0.00796  -0.02218   0.00916
  19        2PY        -0.19665   0.03249   0.01779   0.03947   0.00647
  20        2PZ         0.00916   0.00072   0.14378  -0.02465   0.01628
  21        3S         -1.85201   0.21144  -0.25090  -2.12680  -0.10088
  22        3PX        -0.16035  -0.33812   0.03229   0.07824   0.02279
  23        3PY        -0.53243   0.04677  -0.21555  -1.27755  -0.04584
  24        3PZ        -0.00379  -0.00783  -0.76439   0.19680  -0.03802
  25        4XX         0.19695  -0.01848  -0.01077   0.02049  -0.00739
  26        4YY        -0.18889   0.01747  -0.00477   0.01089   0.01138
  27        4ZZ        -0.08505   0.00927  -0.01987  -0.23262  -0.01399
  28        4XY        -0.04436  -0.11884   0.00071  -0.02224  -0.03199
  29        4XZ         0.00458  -0.01071   0.05376  -0.02098   0.54283
  30        4YZ         0.00020  -0.01008  -0.25671  -0.02008   0.20175
  31 3   O  1S         -0.06384   0.00844  -0.00795  -0.06092  -0.00225
  32        2S         -1.06862   0.16663  -0.10032  -0.82477  -0.03175
  33        2PX        -0.00973   0.09775   0.00611   0.02629   0.01040
  34        2PY         0.21247  -0.04793   0.00425   0.10212   0.00551
  35        2PZ        -0.00476  -0.00005  -0.14030   0.02310  -0.04279
  36        3S          2.99834  -0.41639   0.38068   2.94390   0.11329
  37        3PX         0.07608  -0.03195  -0.01526  -0.04134  -0.00420
  38        3PY        -1.18476   0.18045  -0.09042  -0.88037  -0.03491
  39        3PZ         0.03110   0.00361   0.50496  -0.05131  -0.01595
  40        4XX        -0.21807   0.04275   0.00221  -0.00299   0.00090
  41        4YY        -0.38686   0.06595  -0.01921  -0.23954  -0.01268
  42        4ZZ        -0.27682   0.02459  -0.07281  -0.46475  -0.01535
  43        4XY         0.01541  -0.01744  -0.00133   0.00075   0.02585
  44        4XZ         0.00073  -0.00291   0.01250  -0.00704   0.17882
  45        4YZ         0.00349   0.00468   0.20887  -0.01002  -0.12362
  46 4   F  1S         -0.02038  -0.00430  -0.00223  -0.02860  -0.00033
  47        2S         -0.27074  -0.00311  -0.04429  -0.47015  -0.01414
  48        2PX         0.07045  -0.48007   0.02875   0.18481   0.00378
  49        2PY         0.26496  -0.50579  -0.09818  -0.45358  -0.03772
  50        2PZ        -0.04456  -0.02261  -0.54744   0.11681   0.18745
  51        3S          0.77784   0.11014   0.07436   1.02043   0.02379
  52        3PX        -0.13352   0.63833  -0.04581  -0.31532  -0.00294
  53        3PY        -0.28156   0.64308   0.15276   0.76917   0.05767
  54        3PZ         0.05514   0.02956   0.76185  -0.17537  -0.30584
  55        4XX        -0.13781   0.13549  -0.02781  -0.20371   0.00801
  56        4YY         0.03010  -0.12982  -0.00318  -0.08036  -0.02375
  57        4ZZ        -0.26006  -0.05840  -0.01444  -0.27486   0.00146
  58        4XY        -0.06657   0.04492   0.02154   0.14404   0.02531
  59        4XZ        -0.00302   0.00131  -0.01938  -0.02819  -0.20534
  60        4YZ        -0.00154  -0.00315  -0.04257   0.00084   0.21656
                          36        37        38        39        40
                           V         V         V         V         V
     Eigenvalues --     1.36972   1.57668   1.62997   1.74888   1.75900
   1 1   F  1S         -0.00451   0.01969  -0.00586   0.01683   0.00229
   2        2S         -0.06505  -0.22011   0.23280   0.31292   0.03169
   3        2PX        -0.00584  -0.28330   0.24913   0.18574  -0.00379
   4        2PY        -0.03952  -0.18873   0.04494  -0.19479   0.00914
   5        2PZ        -0.13522  -0.00045   0.00956   0.01847   0.02404
   6        3S          0.15102   0.07781  -0.26630  -0.75274  -0.08578
   7        3PX         0.01995   0.17134  -0.27394  -0.40531   0.00018
   8        3PY         0.07832   0.21194   0.15313   0.43946  -0.02879
   9        3PZ         0.24141  -0.00276  -0.01369  -0.03142  -0.02757
  10        4XX         0.00316   0.13586   0.40070  -0.13458   0.03829
  11        4YY        -0.03363  -0.42780  -0.07679  -0.09787  -0.01843
  12        4ZZ        -0.04799   0.19765  -0.13537   0.55694   0.01506
  13        4XY        -0.03039  -0.08911  -0.17731   0.39550   0.00263
  14        4XZ        -0.21488  -0.00666   0.03688  -0.03952  -0.52372
  15        4YZ         0.08493  -0.03552  -0.03900  -0.03082   0.59418
  16 2   C  1S         -0.00307  -0.00574  -0.00156   0.02819  -0.00062
  17        2S          0.00026   0.05655   0.07974   0.04530   0.00735
  18        2PX        -0.00557  -0.09664   0.03354   0.01629  -0.00365
  19        2PY         0.01549  -0.02005   0.14223  -0.12548   0.00711
  20        2PZ         0.01346   0.00032   0.00277   0.00688   0.01173
  21        3S         -0.19696  -0.52480  -1.01616  -1.58939  -0.00093
  22        3PX         0.00102  -0.25479   0.10829   0.05786  -0.08521
  23        3PY        -0.07548  -0.38793  -0.89347  -2.06150   0.03858
  24        3PZ        -0.17910   0.01288   0.02124   0.03806  -0.00663
  25        4XX        -0.02405  -0.05386  -0.29642   0.19345  -0.01221
  26        4YY         0.02863  -0.01810   0.14689  -0.45071   0.01331
  27        4ZZ        -0.02714   0.06389   0.20284   0.33807  -0.00350
  28        4XY         0.00134   0.44222  -0.07793  -0.02386   0.01088
  29        4XZ        -0.19227   0.02597  -0.00507  -0.00437   0.00596
  30        4YZ         0.54246   0.00596  -0.01089   0.02822  -0.01961
  31 3   O  1S         -0.00383  -0.01448  -0.02342  -0.05541   0.00117
  32        2S         -0.06277  -0.25609  -0.81971  -0.75613  -0.00064
  33        2PX         0.00170  -0.10253   0.01647   0.01462  -0.00345
  34        2PY         0.01403   0.03320   0.33038  -0.20028   0.01366
  35        2PZ        -0.11512  -0.00259  -0.00751  -0.00833   0.03499
  36        3S          0.20877   0.84817   2.09872   3.21437  -0.03399
  37        3PX        -0.00456   0.08088  -0.02518  -0.01578   0.02201
  38        3PY        -0.06860  -0.27397  -0.78763  -0.87489   0.00232
  39        3PZ        -0.02018   0.00626   0.02105   0.03671  -0.03904
  40        4XX         0.00122  -0.05579  -0.49814  -0.06468  -0.02194
  41        4YY        -0.02776  -0.08142  -0.27755  -0.32210   0.00605
  42        4ZZ        -0.02406  -0.03575   0.27674  -0.01324   0.01721
  43        4XY        -0.00650  -0.37804   0.05978   0.02088  -0.02706
  44        4XZ        -0.05971   0.04379  -0.00786  -0.04345  -0.44667
  45        4YZ        -0.33094  -0.00440   0.02562  -0.02093   0.11488
  46 4   F  1S         -0.00525  -0.02613   0.00365   0.02408  -0.00513
  47        2S         -0.07448   0.18968   0.26485   0.19416  -0.05371
  48        2PX         0.01767  -0.32970  -0.19981  -0.06110  -0.00098
  49        2PY        -0.04433   0.11041  -0.01083  -0.18006   0.00081
  50        2PZ        -0.30283   0.00866   0.00888   0.01028  -0.04889
  51        3S          0.16986   0.01344  -0.46221  -0.60551   0.15499
  52        3PX        -0.03860   0.23058   0.26913   0.25957  -0.02411
  53        3PY         0.07888  -0.02133   0.15078   0.41138   0.01272
  54        3PZ         0.49612  -0.01016  -0.01353  -0.02112   0.05569
  55        4XX        -0.01197  -0.12395   0.39910   0.08706  -0.02550
  56        4YY        -0.02695   0.37745  -0.11171  -0.12022   0.01881
  57        4ZZ        -0.05411  -0.21661  -0.03719   0.32645  -0.06113
  58        4XY         0.02870  -0.10181   0.22450  -0.16199   0.04557
  59        4XZ         0.35564  -0.00911  -0.01709  -0.01160  -0.38118
  60        4YZ        -0.05958   0.02091  -0.04054  -0.06533  -0.07428
                          41        42        43        44        45
                           V         V         V         V         V
     Eigenvalues --     1.77626   1.79667   1.79872   1.83643   1.88429
   1 1   F  1S         -0.00167   0.00403  -0.00028  -0.04870  -0.01847
   2        2S         -0.01621   0.36444   0.01465  -0.95566   0.00021
   3        2PX         0.01999   0.06779   0.00826  -0.14691  -0.05353
   4        2PY        -0.02825   0.10247  -0.00111   0.00121   0.26972
   5        2PZ        -0.05011  -0.00177  -0.00086   0.00270  -0.00084
   6        3S          0.05087  -0.73254  -0.02460   2.31671   0.22802
   7        3PX        -0.03003  -0.07898  -0.00889   0.61676   0.26400
   8        3PY         0.07400  -0.27521   0.00558   0.13504  -0.40184
   9        3PZ         0.06128  -0.00031   0.00237  -0.00013   0.00266
  10        4XX        -0.02022  -0.10555  -0.00319  -0.55662   0.26611
  11        4YY        -0.00426  -0.08160  -0.02804  -0.24601  -0.56977
  12        4ZZ         0.00488   0.42988   0.03895  -0.05925   0.20450
  13        4XY        -0.00538   0.40287   0.02086  -0.17332  -0.05194
  14        4XZ        -0.05134   0.02650   0.09448   0.00723   0.00860
  15        4YZ         0.58518  -0.00653  -0.12178  -0.00946   0.02291
  16 2   C  1S          0.00281  -0.00265   0.00136   0.02590  -0.00336
  17        2S          0.00696   0.04495   0.01300   0.40163   0.19685
  18        2PX         0.00169   0.05664   0.00400   0.03617   0.07764
  19        2PY        -0.00581   0.02520  -0.00033  -0.11054   0.14489
  20        2PZ        -0.01241  -0.00298  -0.00108  -0.00995  -0.00665
  21        3S         -0.20216   0.14489  -0.10762  -1.95156  -0.58031
  22        3PX         0.08366  -0.69841  -0.03536  -0.05177  -0.55783
  23        3PY        -0.23057   0.51105  -0.05360   0.74134   0.75000
  24        3PZ         0.00810  -0.00318   0.00050   0.04725   0.01077
  25        4XX         0.02108  -0.09446  -0.00041  -0.20942  -0.30229
  26        4YY        -0.04706   0.11190  -0.01229  -0.01245   0.24976
  27        4ZZ         0.03610  -0.04726   0.01483   0.23151   0.04492
  28        4XY        -0.00902   0.01916  -0.00073  -0.01062   0.03623
  29        4XZ         0.00281   0.00440   0.00981  -0.00026   0.00503
  30        4YZ        -0.00419  -0.00593  -0.00382  -0.00225  -0.01495
  31 3   O  1S         -0.00560   0.01080  -0.00159  -0.01003   0.01981
  32        2S         -0.09935   0.13845  -0.03560  -0.02563  -0.21975
  33        2PX         0.00246  -0.01466   0.00282   0.00068   0.01265
  34        2PY        -0.01246   0.05959  -0.00009  -0.04172   0.27919
  35        2PZ         0.05703  -0.00010   0.03414   0.00466   0.00304
  36        3S          0.38139  -0.64081   0.12462   0.22519  -0.17200
  37        3PX        -0.01981   0.16819   0.00497   0.00950   0.09378
  38        3PY        -0.11135   0.15780  -0.04046  -0.13015  -0.13481
  39        3PZ        -0.06822  -0.00686  -0.04277  -0.01488  -0.01470
  40        4XX        -0.04395  -0.02427  -0.02609  -0.48147   0.44667
  41        4YY        -0.03547   0.06468  -0.01002   0.02302  -0.05833
  42        4ZZ         0.03291   0.02326   0.02065   0.40853  -0.42501
  43        4XY         0.01090  -0.01907   0.00456  -0.00090   0.23065
  44        4XZ         0.60131   0.08927  -0.56519   0.00461   0.01462
  45        4YZ         0.16994  -0.00149   0.08642  -0.00901   0.00452
  46 4   F  1S          0.00486  -0.02709  -0.00184  -0.05322  -0.05005
  47        2S          0.06413  -0.64904  -0.04275  -0.93336  -0.56583
  48        2PX        -0.01297   0.15317   0.00564   0.14532   0.01590
  49        2PY        -0.01526   0.00369  -0.00941  -0.01117   0.08270
  50        2PZ         0.00729  -0.00191  -0.02646   0.00204  -0.00498
  51        3S         -0.17019   1.48931   0.09797   2.26868   1.63580
  52        3PX         0.04700  -0.38673  -0.01829  -0.60933  -0.34760
  53        3PY         0.02851   0.07913   0.02682   0.11305  -0.01420
  54        3PZ        -0.00985   0.00959   0.03282   0.00008   0.01421
  55        4XX         0.04667  -0.03187  -0.01076  -0.66917  -0.36018
  56        4YY        -0.02626   0.10272   0.00316  -0.29361  -0.48058
  57        4ZZ         0.05305  -0.64580  -0.03061   0.05663   0.19335
  58        4XY        -0.01665   0.57897   0.03238   0.09427   0.05407
  59        4XZ         0.23123   0.00928   0.23174  -0.00900  -0.00144
  60        4YZ         0.44637  -0.01195   0.77093  -0.02273   0.01375
                          46        47        48        49        50
                           V         V         V         V         V
     Eigenvalues --     1.91667   1.94152   2.05089   2.10596   2.50016
   1 1   F  1S         -0.07895   0.02054   0.01630  -0.01856   0.00173
   2        2S         -1.22302   0.16817   0.07638   0.00484  -0.05819
   3        2PX         0.04460  -0.04975  -0.07726   0.14551  -0.00885
   4        2PY        -0.06137  -0.04926  -0.03243   0.05024  -0.02091
   5        2PZ        -0.01293   0.00407  -0.15045  -0.08419  -0.06056
   6        3S          3.36165  -0.62845  -0.37757   0.27514   0.10753
   7        3PX         0.40655  -0.01380  -0.01205  -0.07703   0.01126
   8        3PY         0.44818  -0.06451  -0.05617   0.06825   0.05890
   9        3PZ         0.03648  -0.01076   0.32162   0.19705   0.21651
  10        4XX        -0.73022  -0.10383   0.08640  -0.12597  -0.03207
  11        4YY        -0.48384   0.44386  -0.11617   0.23579   0.01679
  12        4ZZ         0.05254  -0.13273   0.14684  -0.18147   0.01076
  13        4XY        -0.16137   0.13059   0.11072  -0.18618   0.02830
  14        4XZ        -0.00351   0.00184   0.48454   0.29105   0.29127
  15        4YZ         0.00290  -0.00174   0.22514   0.14345   0.39624
  16 2   C  1S          0.00122  -0.00268  -0.03314   0.05349  -0.00666
  17        2S          0.03008   0.08687  -0.13947   0.18700   0.00637
  18        2PX        -0.14897   0.00967  -0.03621   0.06625   0.07878
  19        2PY         0.07427   0.01939   0.09990  -0.16438  -0.02765
  20        2PZ        -0.00663  -0.00041  -0.27527  -0.16762  -0.09051
  21        3S         -0.19990  -0.14546   0.62093  -0.73123   0.01673
  22        3PX         2.07944  -0.82770  -0.09520   0.13459   0.13158
  23        3PY         0.75306   0.17478   0.08729  -0.23368  -0.04755
  24        3PZ         0.00149   0.00365  -0.45565  -0.26303  -0.06872
  25        4XX        -0.12437  -0.10875   0.14363  -0.21980  -0.01707
  26        4YY         0.15674   0.06930   0.16556  -0.30742   0.01337
  27        4ZZ        -0.00231   0.03046  -0.47390   0.82826  -0.02306
  28        4XY        -0.35357   0.21497   0.02142  -0.02249   0.02268
  29        4XZ        -0.02154   0.01189  -0.01217  -0.01345   0.86068
  30        4YZ        -0.00895  -0.00314   0.05872   0.04446  -0.38604
  31 3   O  1S          0.01390   0.00497   0.01105  -0.01466   0.00007
  32        2S          0.01914  -0.06181  -0.01504   0.06703  -0.03882
  33        2PX         0.13588  -0.24881  -0.01286   0.01735   0.00688
  34        2PY         0.12657   0.06857   0.12551  -0.22925   0.01951
  35        2PZ         0.00110   0.00109  -0.10314  -0.05121  -0.00298
  36        3S         -0.52989  -0.02978  -0.33112   0.42634   0.07442
  37        3PX        -0.59622   0.51633   0.03875  -0.05765  -0.05410
  38        3PY         0.06163  -0.03109   0.06576  -0.03925  -0.03569
  39        3PZ        -0.01018  -0.00462   0.29116   0.18215   0.16510
  40        4XX         0.17187   0.14184  -0.18141   0.31893  -0.01375
  41        4YY        -0.00725  -0.03898  -0.00136  -0.04317   0.00179
  42        4ZZ        -0.13624  -0.11508   0.18772  -0.24473   0.00411
  43        4XY        -0.14778  -0.59438  -0.03556   0.06624   0.04773
  44        4XZ        -0.01586  -0.01217   0.01429   0.00759  -0.24612
  45        4YZ        -0.00445   0.00306  -0.48776  -0.30961  -0.39669
  46 4   F  1S          0.04494  -0.03979   0.01208  -0.01338  -0.00272
  47        2S          0.75691  -0.29025   0.00191   0.10303   0.11808
  48        2PX         0.07240  -0.03894   0.06327  -0.12757  -0.03238
  49        2PY         0.24710   0.14666  -0.02884   0.04322   0.01775
  50        2PZ         0.00596  -0.00444  -0.14512  -0.08130   0.08617
  51        3S         -2.00456   1.06054  -0.14693  -0.02840  -0.21899
  52        3PX         0.08821  -0.17024  -0.01255   0.11499   0.08014
  53        3PY        -0.66220  -0.07195  -0.00646   0.00196  -0.04615
  54        3PZ        -0.01822   0.01292   0.30306   0.18132  -0.25372
  55        4XX         0.67062   0.07508   0.08645  -0.14102  -0.00402
  56        4YY         0.03668  -0.68780  -0.13732   0.25648   0.01521
  57        4ZZ         0.01120   0.21065   0.11807  -0.12776   0.00487
  58        4XY         0.00721   0.28118  -0.10518   0.18468   0.02395
  59        4XZ        -0.02432   0.00178  -0.52251  -0.30925   0.56640
  60        4YZ         0.00279   0.00944   0.19929   0.12446  -0.30119
                          51        52        53        54        55
                           V         V         V         V         V
     Eigenvalues --     2.57366   2.66042   2.71631   2.92359   2.99817
   1 1   F  1S          0.00368  -0.01144  -0.04802   0.02327  -0.01204
   2        2S         -0.07532   0.50070   0.76609  -0.39521  -0.75133
   3        2PX        -0.02926   0.02357   0.22472  -0.13342  -0.02662
   4        2PY        -0.01042   0.16012   0.06423  -0.02579  -0.05089
   5        2PZ        -0.05761   0.00031   0.00326  -0.00197   0.00114
   6        3S          0.11697  -1.03789  -1.24342   0.66975   1.75425
   7        3PX         0.05411  -0.15649  -0.70852   0.38579   0.97013
   8        3PY         0.00724  -0.65399  -0.13846   0.04746   0.75962
   9        3PZ         0.23404   0.00537   0.00079   0.00066   0.02254
  10        4XX         0.01304   0.16680  -0.50040   0.33610   0.42848
  11        4YY        -0.01945  -0.28448   0.06784  -0.15694   0.11173
  12        4ZZ         0.00869   0.07585   0.13423  -0.02937  -0.44528
  13        4XY        -0.00547  -0.43886  -0.12538  -0.03132   0.88275
  14        4XZ         0.54078   0.03012   0.03344  -0.00116   0.03462
  15        4YZ         0.19796   0.02103   0.02446  -0.00356   0.03042
  16 2   C  1S          0.00464   0.07026  -0.04395   0.04342   0.10649
  17        2S          0.00128   0.00693  -0.24538  -1.42324  -1.33669
  18        2PX         0.02565  -0.84438  -0.43557  -0.04866   0.43971
  19        2PY         0.05348   0.40973  -0.89525  -0.71532   0.62744
  20        2PZ         0.08064  -0.01350   0.01318   0.02709   0.02274
  21        3S          0.03441   0.03730  -0.77592  -1.58640  -1.56705
  22        3PX         0.04437  -1.32748  -0.64685   0.08393   0.06537
  23        3PY         0.09355   0.65159  -1.26108  -0.09598  -0.07489
  24        3PZ         0.07227  -0.00926   0.01364   0.02526   0.02745
  25        4XX         0.03789   0.12469  -0.27912   0.47885  -0.73411
  26        4YY        -0.02798  -0.05325   0.10348  -0.79172   0.72405
  27        4ZZ         0.00733   0.26963  -0.02176   0.65464   0.78246
  28        4XY         0.01931  -0.07901  -0.13990   0.32055  -0.50551
  29        4XZ         0.41248   0.11730   0.05627  -0.00512  -0.00379
  30        4YZ         0.92858  -0.05682   0.09539  -0.00959  -0.00764
  31 3   O  1S          0.00041   0.00265  -0.01341  -0.04459  -0.02434
  32        2S          0.08028   0.42177  -0.85184  -0.37880  -0.28575
  33        2PX         0.00290  -0.03423  -0.01326  -0.00716   0.01586
  34        2PY        -0.03627  -0.09002   0.11845  -0.28667   0.17365
  35        2PZ        -0.01567   0.00544  -0.00947   0.01165  -0.00472
  36        3S         -0.17224  -1.06957   2.39272   1.84042   0.84257
  37        3PX        -0.02228   0.50632   0.29088  -0.09215   0.07049
  38        3PY         0.07787   0.56310  -1.23022  -1.23769  -0.22970
  39        3PZ        -0.30773   0.00251   0.01219   0.02740  -0.00035
  40        4XX         0.02574   0.17267  -0.34493  -0.54102  -0.02451
  41        4YY        -0.00265  -0.34823   0.76548   1.15000  -0.16630
  42        4ZZ        -0.00651   0.16227  -0.39540  -0.53183  -0.10614
  43        4XY         0.02195  -0.48944  -0.32625   0.18483  -0.19821
  44        4XZ        -0.12086  -0.00519  -0.00017  -0.00463   0.00520
  45        4YZ         0.78004  -0.03596   0.03193  -0.06590   0.00505
  46 4   F  1S          0.00085   0.03237  -0.01575   0.00272  -0.01022
  47        2S         -0.00746  -1.07488  -0.06895  -0.37767  -0.44357
  48        2PX         0.00958   0.24141  -0.06666   0.11430   0.04995
  49        2PY         0.00743  -0.12035  -0.09814   0.02523  -0.07455
  50        2PZ         0.00303  -0.00180  -0.00015  -0.00076  -0.00005
  51        3S          0.00255   2.02525   0.32963   0.76195   0.99898
  52        3PX        -0.02089  -0.88989   0.11632  -0.51498  -0.42898
  53        3PY        -0.03005   0.45286   0.44691  -0.00496   0.40180
  54        3PZ        -0.01407   0.00328   0.00087   0.00481   0.00595
  55        4XX         0.02558   0.40362  -0.30378   0.49129   0.00142
  56        4YY        -0.01749  -0.04212   0.19041  -0.33819   0.12068
  57        4ZZ        -0.00535  -0.26147  -0.01809  -0.14218  -0.21012
  58        4XY         0.02200  -0.35962  -0.35409   0.02086  -0.48249
  59        4XZ        -0.07525   0.03940   0.00293  -0.01272  -0.00939
  60        4YZ        -0.15460  -0.02084   0.00373   0.00019   0.01579
                          56        57        58        59        60
                           V         V         V         V         V
     Eigenvalues --     3.04328   3.72503   4.12826   4.36035   4.60342
   1 1   F  1S          0.01208  -0.14784  -0.30138  -0.08786  -0.67014
   2        2S          0.14119  -0.35964  -0.89548  -0.49727  -2.60242
   3        2PX        -0.02117  -0.00321  -0.19769  -0.04018  -0.25480
   4        2PY        -0.06678  -0.04364  -0.02242   0.07560  -0.20353
   5        2PZ        -0.00072   0.00404  -0.00231   0.00355  -0.01123
   6        3S         -0.42896   1.82372   3.83823   1.63725  10.07165
   7        3PX        -0.49159   0.14280   0.38138   0.92671   1.28568
   8        3PY        -0.00848   0.28875  -0.21945   0.12392   1.01862
   9        3PZ        -0.01435  -0.01048  -0.00140   0.00699   0.04552
  10        4XX        -0.65008  -0.55452  -1.23596   0.15593  -2.43086
  11        4YY         0.40507  -0.60979  -1.34370  -0.36672  -2.60732
  12        4ZZ         0.18580  -0.52070  -1.19266  -0.50071  -2.86093
  13        4XY        -0.13949   0.10201  -0.15706   0.33423   0.34592
  14        4XZ        -0.02820  -0.00402  -0.00392   0.02039   0.01098
  15        4YZ        -0.00229   0.00499  -0.01241   0.00503   0.01105
  16 2   C  1S          0.04091  -0.01190   0.27792  -0.34406  -0.12005
  17        2S         -0.00101  -0.09175  -1.65235   1.98003   0.44061
  18        2PX        -0.68304   0.00305  -0.06769  -0.05802   0.40206
  19        2PY         0.26486   0.02751   0.17303   0.16995   0.11432
  20        2PZ        -0.00038   0.00324  -0.00963   0.02762   0.01149
  21        3S         -0.26047  -2.72650  -0.58715  -1.08646  -0.67036
  22        3PX        -0.05315  -0.02020  -0.24234  -0.96053   2.73402
  23        3PY        -0.05473  -1.18237   1.64247   1.03783   0.83911
  24        3PZ         0.00715   0.05671   0.01671   0.03730   0.02337
  25        4XX        -0.48939  -0.08683   1.38557  -1.92075  -0.57845
  26        4YY         0.60424   0.09851   1.16418  -1.86642  -0.58350
  27        4ZZ         0.12156   0.17217   1.01784  -0.96513  -0.27233
  28        4XY         1.19860   0.00477   0.03908  -0.06550   0.02593
  29        4XZ        -0.00040  -0.00085   0.00293   0.00748  -0.02081
  30        4YZ         0.00092   0.00043  -0.00813  -0.00873  -0.00359
  31 3   O  1S          0.00288  -0.49578   0.19192   0.09497   0.05110
  32        2S         -0.07487  -0.20553   0.35472   0.13186   0.10082
  33        2PX        -0.04115  -0.00241  -0.00561  -0.01820   0.07997
  34        2PY         0.17128   0.22249  -0.01853  -0.30281  -0.11258
  35        2PZ        -0.00557  -0.00379   0.00529   0.01147   0.00560
  36        3S         -0.02762   5.55936  -2.94967  -0.96234  -0.72996
  37        3PX        -0.25434   0.01497   0.04531   0.26940  -0.79096
  38        3PY         0.16642  -1.24645   0.94128  -0.15310   0.02456
  39        3PZ        -0.00696   0.01938  -0.04024  -0.01187  -0.01366
  40        4XX         0.10302  -1.73247   0.63007   0.26440   0.13985
  41        4YY        -0.31823  -1.42623   0.27248   0.68008   0.29035
  42        4ZZ         0.07467  -1.67666   0.77689   0.31040   0.17104
  43        4XY         0.60922  -0.00134  -0.00224  -0.09230   0.22632
  44        4XZ        -0.01622   0.00018   0.00064   0.00546  -0.01448
  45        4YZ         0.01861  -0.00436   0.01542  -0.01420  -0.00267
  46 4   F  1S         -0.03194  -0.16373  -0.40345  -0.45619   0.34660
  47        2S         -0.45142  -0.39819  -1.16726  -1.82056   1.22578
  48        2PX         0.01306   0.01462   0.20362   0.22536  -0.10848
  49        2PY        -0.01809  -0.04188  -0.02580  -0.07803   0.17049
  50        2PZ         0.00064   0.00319  -0.00281  -0.00486   0.00928
  51        3S          1.11492   2.00302   5.11454   6.78462  -4.99185
  52        3PX        -0.71524  -0.18859  -0.50188  -1.38228   0.25404
  53        3PY         0.36822   0.26107  -0.08658   0.54950  -0.65137
  54        3PZ         0.01715  -0.00779   0.00408   0.02762  -0.02848
  55        4XX         0.52099  -0.58698  -1.63530  -1.27638   1.53120
  56        4YY        -0.25362  -0.69762  -1.69673  -1.86588   1.29379
  57        4ZZ        -0.40739  -0.58428  -1.61246  -2.05108   1.40682
  58        4XY        -0.50876  -0.09864   0.12545  -0.40115   0.07368
  59        4XZ        -0.03422   0.00262   0.00368  -0.01950  -0.00309
  60        4YZ         0.01510   0.00535  -0.00973   0.00793  -0.00830
     Density Matrix:
                           1         2         3         4         5
   1 1   F  1S          2.08539
   2        2S         -0.21481   0.56911
   3        2PX         0.03173  -0.05695   0.69420
   4        2PY         0.01595  -0.02323  -0.10207   0.85132
   5        2PZ         0.00112  -0.00124  -0.00623  -0.00344   0.85850
   6        3S         -0.22535   0.56681  -0.15647  -0.08098  -0.00841
   7        3PX         0.01952  -0.04041   0.41987  -0.08450  -0.00573
   8        3PY         0.01021  -0.01781  -0.08369   0.54027  -0.00285
   9        3PZ         0.00069  -0.00080  -0.00504  -0.00267   0.57716
  10        4XX        -0.02279   0.01437   0.03640  -0.00618  -0.00009
  11        4YY        -0.02028   0.00950  -0.00600   0.02474   0.00025
  12        4ZZ        -0.01996   0.00893  -0.00076   0.00220   0.00187
  13        4XY        -0.00228   0.00443   0.00780   0.02368  -0.00018
  14        4XZ        -0.00009   0.00020   0.00038  -0.00027   0.03204
  15        4YZ        -0.00006   0.00013  -0.00027   0.00072   0.01651
  16 2   C  1S          0.00504  -0.01195  -0.08030  -0.03915  -0.00237
  17        2S          0.00190   0.00283   0.18457   0.09081   0.00596
  18        2PX         0.01418  -0.04585  -0.21246  -0.17205  -0.00753
  19        2PY         0.01129  -0.03612  -0.21182  -0.07578  -0.00555
  20        2PZ         0.00030  -0.00145  -0.00531  -0.00264   0.11213
  21        3S          0.01356  -0.03056   0.06433   0.06544  -0.00300
  22        3PX        -0.00649   0.01449   0.05412  -0.02540  -0.00601
  23        3PY        -0.00459   0.00913  -0.06328   0.12668  -0.00613
  24        3PZ        -0.00008  -0.00010  -0.00073  -0.00082   0.06289
  25        4XX        -0.00415   0.01113  -0.00569   0.03595   0.00077
  26        4YY         0.00220  -0.00408   0.00389  -0.03274  -0.00035
  27        4ZZ         0.00292  -0.00704  -0.01152  -0.00678  -0.00101
  28        4XY        -0.00841   0.01940   0.04340   0.01092   0.00149
  29        4XZ        -0.00025   0.00055   0.00132   0.00114  -0.03101
  30        4YZ        -0.00018   0.00044   0.00126   0.00035  -0.02720
  31 3   O  1S         -0.00072   0.00211   0.00066   0.01715  -0.00054
  32        2S          0.00165  -0.00392  -0.00693  -0.02584  -0.00016
  33        2PX        -0.01993   0.03340   0.04467   0.11035   0.00208
  34        2PY        -0.00950   0.02515   0.04013   0.08869  -0.00242
  35        2PZ        -0.00005  -0.00055  -0.00007  -0.00083  -0.14575
  36        3S         -0.00280   0.00670   0.05100  -0.14001   0.00960
  37        3PX        -0.01232   0.01992   0.02561   0.08019   0.00367
  38        3PY        -0.00341   0.00974   0.00154   0.08437  -0.00534
  39        3PZ        -0.00004  -0.00028   0.00135  -0.00186  -0.12352
  40        4XX        -0.00021   0.00045  -0.00379   0.00924  -0.00051
  41        4YY        -0.00029   0.00011   0.00002   0.00473  -0.00011
  42        4ZZ         0.00001   0.00041  -0.00048   0.00527  -0.00080
  43        4XY         0.00031  -0.00013   0.00416  -0.00096  -0.00021
  44        4XZ        -0.00001  -0.00001  -0.00014   0.00014  -0.00229
  45        4YZ        -0.00000   0.00007   0.00014   0.00012   0.00576
  46 4   F  1S         -0.00001   0.00133   0.01380  -0.00555  -0.00030
  47        2S          0.00153  -0.00310  -0.02288   0.00123  -0.00094
  48        2PX        -0.01480   0.02406   0.14562  -0.01778   0.00107
  49        2PY        -0.00646  -0.00194   0.01678   0.00115   0.00063
  50        2PZ        -0.00030  -0.00121  -0.00109   0.00074  -0.05615
  51        3S         -0.00381   0.00561  -0.08369   0.05932   0.00556
  52        3PX        -0.00736   0.01074   0.10431  -0.02989  -0.00013
  53        3PY        -0.00461  -0.00099   0.00842  -0.00158   0.00273
  54        3PZ        -0.00021  -0.00082  -0.00127   0.00129  -0.04921
  55        4XX         0.00032   0.00016   0.00805  -0.00172  -0.00070
  56        4YY         0.00025  -0.00050   0.00425  -0.00807  -0.00047
  57        4ZZ         0.00069  -0.00074   0.00367  -0.00455  -0.00079
  58        4XY         0.00026   0.00001   0.00107  -0.00030  -0.00027
  59        4XZ         0.00001   0.00005   0.00012  -0.00011   0.00043
  60        4YZ        -0.00001  -0.00003  -0.00002  -0.00009  -0.00285
                           6         7         8         9        10
   6        3S          0.63064
   7        3PX        -0.08918   0.25678
   8        3PY        -0.04528  -0.06361   0.34474
   9        3PZ        -0.00522  -0.00431  -0.00209   0.38915
  10        4XX         0.00430   0.02107  -0.00553  -0.00012   0.00331
  11        4YY         0.00398  -0.00524   0.01515   0.00014   0.00046
  12        4ZZ         0.00654  -0.00109   0.00109   0.00125   0.00059
  13        4XY         0.00017   0.00395   0.01459  -0.00015   0.00073
  14        4XZ        -0.00015   0.00017  -0.00022   0.02122   0.00004
  15        4YZ        -0.00008  -0.00022   0.00043   0.01088  -0.00000
  16 2   C  1S          0.01414  -0.05083  -0.02354  -0.00128  -0.00984
  17        2S         -0.07108   0.10807   0.04943   0.00308   0.01957
  18        2PX         0.03879  -0.11156  -0.09362  -0.00433  -0.01074
  19        2PY         0.01897  -0.11845  -0.03980  -0.00314  -0.01658
  20        2PZ         0.00168  -0.00241  -0.00138   0.05721  -0.00075
  21        3S         -0.06163   0.03681   0.03755  -0.00270   0.00662
  22        3PX         0.04482   0.04107  -0.01088  -0.00382   0.00049
  23        3PY         0.03189  -0.03640   0.08178  -0.00394  -0.00606
  24        3PZ         0.00086  -0.00012  -0.00035   0.03383  -0.00018
  25        4XX         0.01165  -0.00418   0.02252   0.00053  -0.00017
  26        4YY        -0.00325   0.00299  -0.02035  -0.00026   0.00010
  27        4ZZ        -0.00257  -0.00667  -0.00378  -0.00058  -0.00138
  28        4XY         0.02262   0.02765   0.00744   0.00106   0.00155
  29        4XZ         0.00063   0.00080   0.00076  -0.02125   0.00004
  30        4YZ         0.00030   0.00083   0.00012  -0.01907   0.00010
  31 3   O  1S         -0.00246  -0.00160   0.00874  -0.00039  -0.00017
  32        2S          0.00726   0.00007  -0.01058  -0.00004   0.00025
  33        2PX         0.15018   0.05286   0.09900   0.00269  -0.00601
  34        2PY         0.03350   0.01949   0.05693  -0.00230   0.00024
  35        2PZ         0.00194   0.00154  -0.00096  -0.11740  -0.00022
  36        3S          0.00678   0.03270  -0.08324   0.00628   0.00460
  37        3PX         0.09465   0.03183   0.06972   0.00333  -0.00412
  38        3PY         0.01962  -0.00088   0.05450  -0.00391  -0.00150
  39        3PZ         0.00099   0.00183  -0.00157  -0.09495  -0.00002
  40        4XX         0.00173  -0.00230   0.00586  -0.00032  -0.00039
  41        4YY        -0.00169   0.00018   0.00275  -0.00002   0.00032
  42        4ZZ         0.00073  -0.00034   0.00330  -0.00058  -0.00009
  43        4XY        -0.00706   0.00105  -0.00220  -0.00022   0.00055
  44        4XZ         0.00020  -0.00005   0.00014  -0.00158  -0.00002
  45        4YZ        -0.00009  -0.00002   0.00010   0.00522   0.00002
  46 4   F  1S         -0.00379   0.00639  -0.00405  -0.00021   0.00028
  47        2S          0.00400  -0.00962   0.00097  -0.00063   0.00040
  48        2PX         0.09452   0.10266  -0.01018   0.00119  -0.00965
  49        2PY         0.08153   0.03125  -0.00138   0.00146  -0.00439
  50        2PZ         0.00647   0.00000   0.00317  -0.05189  -0.00083
  51        3S          0.00600  -0.05190   0.03550   0.00365  -0.00443
  52        3PX         0.06132   0.07432  -0.01726   0.00028  -0.00579
  53        3PY         0.05139   0.01817  -0.00309   0.00250  -0.00307
  54        3PZ         0.00430  -0.00039   0.00264  -0.04200  -0.00060
  55        4XX        -0.00528   0.00451  -0.00138  -0.00051   0.00167
  56        4YY         0.00360   0.00385  -0.00476  -0.00026   0.00003
  57        4ZZ         0.00020   0.00266  -0.00278  -0.00055   0.00018
  58        4XY        -0.00142   0.00005  -0.00016  -0.00021  -0.00013
  59        4XZ        -0.00016   0.00005  -0.00016   0.00106   0.00002
  60        4YZ         0.00019   0.00004  -0.00002  -0.00231  -0.00002
                          11        12        13        14        15
  11        4YY         0.00150
  12        4ZZ         0.00056   0.00041
  13        4XY         0.00088   0.00017   0.00106
  14        4XZ         0.00000   0.00007   0.00000   0.00129
  15        4YZ         0.00003   0.00004   0.00002   0.00069   0.00039
  16 2   C  1S         -0.00213   0.00066  -0.00687  -0.00034  -0.00021
  17        2S          0.00576   0.00101   0.01251   0.00062   0.00038
  18        2PX        -0.01101  -0.00324  -0.00928  -0.00048  -0.00040
  19        2PY         0.00070  -0.00248  -0.00075  -0.00043  -0.00000
  20        2PZ        -0.00047   0.00012  -0.00035   0.00972   0.00654
  21        3S          0.00220  -0.00010   0.00526   0.00015   0.00019
  22        3PX        -0.00417  -0.00147  -0.00013  -0.00019  -0.00017
  23        3PY         0.00181  -0.00106   0.00278  -0.00024   0.00005
  24        3PZ        -0.00017   0.00007  -0.00004   0.00483   0.00303
  25        4XX         0.00060   0.00013   0.00058   0.00003   0.00003
  26        4YY        -0.00064  -0.00005  -0.00079  -0.00001  -0.00002
  27        4ZZ        -0.00049  -0.00018  -0.00081  -0.00008  -0.00005
  28        4XY        -0.00032  -0.00009   0.00105   0.00009   0.00004
  29        4XZ         0.00003  -0.00007   0.00007  -0.00111  -0.00067
  30        4YZ        -0.00001  -0.00002   0.00000  -0.00069  -0.00014
  31 3   O  1S         -0.00013   0.00022  -0.00007  -0.00001   0.00001
  32        2S          0.00016  -0.00036   0.00039  -0.00003  -0.00001
  33        2PX        -0.00889  -0.00431   0.00277  -0.00005   0.00008
  34        2PY        -0.00286   0.00102  -0.00516   0.00010   0.00001
  35        2PZ        -0.00033  -0.00021  -0.00005   0.00126   0.00367
  36        3S         -0.00290   0.00099  -0.00495   0.00034  -0.00004
  37        3PX        -0.00542  -0.00273   0.00197   0.00004   0.00011
  38        3PY        -0.00081   0.00015  -0.00159  -0.00009   0.00001
  39        3PZ        -0.00023  -0.00015  -0.00010  -0.00039   0.00186
  40        4XX         0.00008  -0.00006   0.00011  -0.00002  -0.00000
  41        4YY         0.00046  -0.00005   0.00081  -0.00002   0.00000
  42        4ZZ         0.00004  -0.00002   0.00008  -0.00001   0.00001
  43        4XY         0.00062   0.00026   0.00011   0.00000  -0.00000
  44        4XZ        -0.00001  -0.00001   0.00000  -0.00008  -0.00005
  45        4YZ         0.00002   0.00001  -0.00000  -0.00024  -0.00031
  46 4   F  1S          0.00006   0.00068  -0.00030  -0.00001  -0.00002
  47        2S         -0.00016  -0.00049   0.00008  -0.00004  -0.00003
  48        2PX        -0.00447  -0.00407   0.00078   0.00009   0.00002
  49        2PY        -0.01104  -0.00630   0.00012   0.00011  -0.00011
  50        2PZ        -0.00055  -0.00092   0.00024  -0.00016  -0.00308
  51        3S          0.00398   0.00042   0.00049   0.00015   0.00021
  52        3PX        -0.00423  -0.00299   0.00002   0.00002  -0.00004
  53        3PY        -0.00689  -0.00399  -0.00005   0.00016  -0.00003
  54        3PZ        -0.00032  -0.00064   0.00018  -0.00075  -0.00251
  55        4XX         0.00005   0.00018   0.00029  -0.00001  -0.00002
  56        4YY        -0.00070  -0.00028  -0.00013  -0.00002  -0.00002
  57        4ZZ        -0.00030  -0.00009  -0.00008  -0.00002  -0.00003
  58        4XY         0.00021   0.00015  -0.00016  -0.00001  -0.00000
  59        4XZ         0.00002   0.00003  -0.00001  -0.00014   0.00001
  60        4YZ        -0.00002  -0.00002   0.00000  -0.00002  -0.00002
                          16        17        18        19        20
  16 2   C  1S          2.04552
  17        2S         -0.07668   0.39281
  18        2PX        -0.00013  -0.00028   0.31384
  19        2PY        -0.02458   0.05921   0.00310   0.40426
  20        2PZ        -0.00071   0.00135   0.00023  -0.00098   0.33040
  21        3S         -0.07379   0.16062   0.01176   0.00542   0.00699
  22        3PX        -0.00316   0.00582   0.03825  -0.00543  -0.00016
  23        3PY         0.00473  -0.00944  -0.00636   0.02389   0.00204
  24        3PZ        -0.00189   0.00414  -0.00006   0.00025   0.14936
  25        4XX        -0.01040  -0.01275  -0.00028  -0.03049   0.00004
  26        4YY        -0.01548  -0.00311  -0.00040   0.01650   0.00032
  27        4ZZ        -0.00904  -0.02224   0.00183  -0.00124  -0.00080
  28        4XY        -0.00040   0.00182  -0.01813  -0.00533  -0.00009
  29        4XZ        -0.00000   0.00003  -0.00105  -0.00010  -0.00163
  30        4YZ        -0.00001   0.00001  -0.00010  -0.00127   0.01524
  31 3   O  1S          0.01103  -0.01093   0.00060  -0.04072   0.00123
  32        2S         -0.02592   0.02933  -0.00173   0.09501  -0.00296
  33        2PX        -0.00323   0.00884   0.17931  -0.00062  -0.00049
  34        2PY         0.11226  -0.28065   0.00397  -0.37423   0.01441
  35        2PZ        -0.00490   0.01107  -0.00029   0.00981   0.36467
  36        3S          0.01702  -0.08017  -0.00027  -0.03148  -0.00193
  37        3PX        -0.00121   0.00414   0.11327   0.00009  -0.00032
  38        3PY         0.05519  -0.13510   0.00289  -0.17673   0.00835
  39        3PZ        -0.00259   0.00565  -0.00017   0.00485   0.22604
  40        4XX         0.00154  -0.00357   0.00010  -0.00380   0.00006
  41        4YY        -0.01096   0.02640  -0.00054   0.02240  -0.00136
  42        4ZZ         0.00074  -0.00160   0.00002  -0.00384   0.00100
  43        4XY         0.00016  -0.00040  -0.01532  -0.00020   0.00003
  44        4XZ        -0.00000   0.00000   0.00041   0.00002   0.00003
  45        4YZ         0.00046  -0.00102   0.00002  -0.00097  -0.02513
  46 4   F  1S          0.00264   0.00452  -0.00912   0.00714   0.00018
  47        2S         -0.00789  -0.00317   0.03437  -0.02518  -0.00105
  48        2PX         0.07583  -0.17383  -0.23858   0.18972   0.00387
  49        2PY        -0.02850   0.06660   0.13790  -0.05253  -0.00152
  50        2PZ        -0.00214   0.00533   0.00702  -0.00466   0.09695
  51        3S          0.02024  -0.07392  -0.04834   0.01731   0.00147
  52        3PX         0.04900  -0.10520  -0.13306   0.11434   0.00174
  53        3PY        -0.01676   0.03626   0.07906  -0.02981  -0.00087
  54        3PZ        -0.00117   0.00285   0.00421  -0.00282   0.05143
  55        4XX        -0.01089   0.02116   0.01431  -0.01510  -0.00062
  56        4YY        -0.00170   0.00434   0.00881   0.00027  -0.00037
  57        4ZZ        -0.00009   0.00162   0.00356  -0.00211   0.00005
  58        4XY         0.00554  -0.01032  -0.00834  -0.00039   0.00025
  59        4XZ         0.00031  -0.00058  -0.00048   0.00036  -0.00849
  60        4YZ        -0.00015   0.00028   0.00029   0.00003   0.00475
                          21        22        23        24        25
  21        3S          0.08295
  22        3PX        -0.00027   0.04473
  23        3PY         0.00790   0.00223   0.05782
  24        3PZ         0.00392   0.00020   0.00032   0.06906
  25        4XX        -0.00104  -0.00075   0.01065  -0.00011   0.00553
[...]
  44        4XZ        -0.00000   0.00000   0.00000   0.00000   0.00000
  45        4YZ         0.00000   0.00000   0.00000   0.00179  -0.00000
  46 4   F  1S          0.00043   0.00046   0.00012   0.00000  -0.00006
  47        2S         -0.00536  -0.00541  -0.00146   0.00000   0.00156
  48        2PX         0.00837  -0.00281   0.00535   0.00000   0.00057
  49        2PY         0.00291   0.00244   0.00780   0.00000   0.00341
  50        2PZ        -0.00001   0.00002   0.00001   0.00675   0.00000
  51        3S         -0.02520  -0.02497  -0.00661  -0.00000   0.00356
  52        3PX         0.02160  -0.00395   0.01036   0.00001   0.00096
  53        3PY         0.00736   0.00397   0.02549   0.00000   0.00573
  54        3PZ        -0.00002   0.00005   0.00002   0.01704   0.00001
  55        4XX         0.00281  -0.00006   0.00131   0.00000   0.00008
  56        4YY         0.00049   0.00155  -0.00027   0.00000   0.00006
  57        4ZZ         0.00010   0.00054   0.00007  -0.00000   0.00001
  58        4XY         0.00036   0.00002   0.00031   0.00000   0.00018
  59        4XZ         0.00000   0.00000   0.00000   0.00068   0.00000
  60        4YZ         0.00000   0.00000   0.00000   0.00017   0.00000
                          26        27        28        29        30
  26        4YY         0.00367
  27        4ZZ         0.00006   0.00164
  28        4XY         0.00000  -0.00000   0.00848
  29        4XZ        -0.00000  -0.00000  -0.00000   0.00201
  30        4YZ         0.00000   0.00000   0.00000   0.00000   0.00310
  31 3   O  1S         -0.00069   0.00000  -0.00000   0.00000  -0.00000
  32        2S          0.00819  -0.00044   0.00000  -0.00000   0.00001
  33        2PX         0.00000  -0.00000   0.00850   0.00000  -0.00000
  34        2PY         0.00345  -0.00070   0.00002  -0.00000   0.00003
  35        2PZ         0.00001   0.00000   0.00000   0.00000   0.00589
  36        3S          0.01361  -0.00120   0.00000  -0.00000   0.00001
  37        3PX         0.00000  -0.00000   0.00850   0.00000   0.00000
  38        3PY         0.00298  -0.00194   0.00000  -0.00000   0.00001
  39        3PZ         0.00001  -0.00000   0.00000   0.00000   0.00632
  40        4XX        -0.00023   0.00001   0.00000  -0.00000  -0.00000
  41        4YY        -0.00010  -0.00023   0.00000   0.00000   0.00000
  42        4ZZ        -0.00013   0.00001  -0.00000   0.00000   0.00000
  43        4XY         0.00000   0.00000   0.00064   0.00000   0.00000
  44        4XZ        -0.00000  -0.00000   0.00000   0.00002   0.00000
  45        4YZ         0.00000   0.00000   0.00000   0.00000   0.00084
  46 4   F  1S          0.00001   0.00000  -0.00008  -0.00000  -0.00000
  47        2S         -0.00028  -0.00007   0.00165   0.00000   0.00000
  48        2PX        -0.00036  -0.00015   0.00585   0.00001   0.00000
  49        2PY         0.00000  -0.00004   0.00006   0.00000   0.00000
  50        2PZ        -0.00000   0.00000   0.00000   0.00173   0.00065
  51        3S         -0.00093  -0.00024   0.00252   0.00000   0.00000
  52        3PX        -0.00114  -0.00124   0.00477   0.00001   0.00000
  53        3PY        -0.00092  -0.00029  -0.00015   0.00000   0.00000
  54        3PZ        -0.00000  -0.00000   0.00001   0.00394   0.00151
  55        4XX        -0.00011  -0.00015   0.00044   0.00000   0.00000
  56        4YY        -0.00001  -0.00001  -0.00000   0.00000  -0.00000
  57        4ZZ        -0.00000  -0.00001  -0.00001   0.00000   0.00000
  58        4XY        -0.00001  -0.00005   0.00002   0.00000  -0.00000
  59        4XZ        -0.00000   0.00000   0.00000   0.00021   0.00007
  60        4YZ        -0.00000   0.00000   0.00000   0.00006  -0.00000
                          31        32        33        34        35
  31 3   O  1S          2.07959
  32        2S         -0.04334   0.51971
  33        2PX         0.00000   0.00000   0.81281
  34        2PY         0.00000   0.00000   0.00000   0.57296
  35        2PZ         0.00000   0.00000   0.00000  -0.00000   0.58119
  36        3S         -0.04201   0.45668   0.00000   0.00000   0.00000
  37        3PX         0.00000   0.00000   0.26467   0.00000   0.00000
  38        3PY         0.00000   0.00000   0.00000   0.14558  -0.00000
  39        3PZ         0.00000   0.00000   0.00000  -0.00000   0.19239
  40        4XX        -0.00037  -0.00570   0.00000   0.00000   0.00000
  41        4YY        -0.00035  -0.00523   0.00000   0.00000   0.00000
  42        4ZZ        -0.00044  -0.00328   0.00000   0.00000   0.00000
  43        4XY        -0.00000  -0.00000   0.00000   0.00000   0.00000
  44        4XZ         0.00000   0.00000   0.00000   0.00000   0.00000
  45        4YZ         0.00000  -0.00000   0.00000   0.00000   0.00000
  46 4   F  1S          0.00000   0.00000   0.00000   0.00000  -0.00000
  47        2S          0.00000  -0.00000  -0.00000  -0.00000  -0.00000
  48        2PX         0.00000  -0.00000  -0.00001  -0.00001  -0.00000
  49        2PY         0.00000  -0.00000  -0.00002  -0.00002  -0.00000
  50        2PZ         0.00000   0.00000   0.00000  -0.00000  -0.00000
  51        3S         -0.00000   0.00004  -0.00093  -0.00035   0.00000
  52        3PX         0.00000  -0.00008  -0.00071  -0.00074   0.00000
  53        3PY         0.00002  -0.00027  -0.00194  -0.00140  -0.00000
  54        3PZ         0.00000   0.00000   0.00000  -0.00000  -0.00050
  55        4XX        -0.00000  -0.00000   0.00000   0.00000  -0.00000
  56        4YY         0.00000  -0.00000   0.00003   0.00001  -0.00000
  57        4ZZ         0.00000  -0.00000   0.00000  -0.00000   0.00000
  58        4XY         0.00000   0.00000  -0.00001   0.00002  -0.00000
  59        4XZ         0.00000   0.00000   0.00000   0.00000   0.00000
  60        4YZ        -0.00000   0.00000   0.00000   0.00000   0.00000
                          36        37        38        39        40
  36        3S          0.79985
  37        3PX         0.00000   0.34285
  38        3PY         0.00000   0.00000   0.15275
  39        3PZ         0.00000   0.00000  -0.00000   0.25535
  40        4XX        -0.00930   0.00000   0.00000   0.00000   0.00059
  41        4YY        -0.01821   0.00000   0.00000   0.00000   0.00002
  42        4ZZ        -0.00479   0.00000   0.00000   0.00000   0.00012
  43        4XY         0.00000   0.00000   0.00000   0.00000  -0.00000
  44        4XZ        -0.00000   0.00000   0.00000   0.00000  -0.00000
  45        4YZ        -0.00000   0.00000   0.00000   0.00000   0.00000
  46 4   F  1S         -0.00000   0.00004   0.00001  -0.00000  -0.00000
  47        2S          0.00004  -0.00052  -0.00035  -0.00000   0.00000
  48        2PX         0.00031  -0.00047  -0.00040   0.00000  -0.00000
  49        2PY        -0.00187  -0.00191  -0.00252  -0.00000   0.00001
  50        2PZ        -0.00000   0.00000  -0.00000  -0.00076   0.00000
  51        3S          0.00080  -0.00755  -0.00244   0.00000   0.00003
  52        3PX         0.00200  -0.00219  -0.00176   0.00000  -0.00004
  53        3PY        -0.01075  -0.01025  -0.00959  -0.00000   0.00037
  54        3PZ        -0.00000   0.00000  -0.00000  -0.00541   0.00000
  55        4XX         0.00008   0.00006   0.00009  -0.00000  -0.00000
  56        4YY        -0.00015   0.00050   0.00004  -0.00000   0.00000
  57        4ZZ        -0.00000   0.00008  -0.00000  -0.00000  -0.00000
  58        4XY        -0.00021  -0.00007   0.00008  -0.00000   0.00000
  59        4XZ        -0.00000   0.00000  -0.00000  -0.00001   0.00000
  60        4YZ         0.00000   0.00000   0.00000   0.00005  -0.00000
                          41        42        43        44        45
  41        4YY         0.00327
  42        4ZZ         0.00000   0.00027
  43        4XY        -0.00000  -0.00000   0.00194
  44        4XZ         0.00000   0.00000   0.00000   0.00001
  45        4YZ        -0.00000   0.00000  -0.00000   0.00000   0.00242
  46 4   F  1S         -0.00000   0.00000   0.00000   0.00000  -0.00000
  47        2S         -0.00000   0.00000  -0.00000  -0.00000  -0.00000
  48        2PX        -0.00000  -0.00000   0.00000   0.00000  -0.00000
  49        2PY         0.00001   0.00000  -0.00000  -0.00000  -0.00000
  50        2PZ         0.00000  -0.00000   0.00000   0.00000  -0.00000
  51        3S         -0.00006   0.00000  -0.00018  -0.00000   0.00000
  52        3PX        -0.00003  -0.00000   0.00001   0.00000  -0.00000
  53        3PY         0.00015   0.00008  -0.00011  -0.00000  -0.00000
  54        3PZ         0.00000   0.00000   0.00000   0.00002  -0.00009
  55        4XX         0.00001  -0.00000   0.00000   0.00000  -0.00000
  56        4YY         0.00001   0.00000   0.00001   0.00000  -0.00000
  57        4ZZ         0.00000   0.00000   0.00000  -0.00000   0.00000
  58        4XY         0.00002   0.00000   0.00000  -0.00000  -0.00000
  59        4XZ         0.00000  -0.00000   0.00000   0.00000   0.00000
  60        4YZ        -0.00000   0.00000   0.00000   0.00000   0.00000
                          46        47        48        49        50
  46 4   F  1S          2.08619
  47        2S         -0.05242   0.56492
  48        2PX         0.00000   0.00000   0.66356
  49        2PY         0.00000   0.00000   0.00000   0.86724
  50        2PZ         0.00000   0.00000   0.00000   0.00000   0.85966
  51        3S         -0.03984   0.44139   0.00000   0.00000   0.00000
  52        3PX         0.00000   0.00000   0.20735   0.00000   0.00000
  53        3PY         0.00000   0.00000   0.00000   0.28209   0.00000
  54        3PZ         0.00000   0.00000   0.00000   0.00000   0.29284
  55        4XX        -0.00053   0.00672   0.00000   0.00000   0.00000
  56        4YY        -0.00044   0.00320   0.00000   0.00000   0.00000
  57        4ZZ        -0.00044   0.00306   0.00000   0.00000   0.00000
  58        4XY         0.00000  -0.00000   0.00000   0.00000   0.00000
  59        4XZ         0.00000  -0.00000   0.00000   0.00000   0.00000
  60        4YZ         0.00000  -0.00000   0.00000   0.00000   0.00000
                          51        52        53        54        55
  51        3S          0.64434
  52        3PX         0.00000   0.26212
  53        3PY         0.00000   0.00000   0.36877
  54        3PZ         0.00000   0.00000   0.00000   0.40051
  55        4XX         0.00424   0.00000   0.00000   0.00000   0.00347
  56        4YY         0.00224   0.00000   0.00000   0.00000   0.00019
  57        4ZZ         0.00353   0.00000   0.00000   0.00000   0.00019
  58        4XY        -0.00000   0.00000   0.00000   0.00000  -0.00000
  59        4XZ         0.00000   0.00000   0.00000   0.00000  -0.00000
  60        4YZ         0.00000   0.00000   0.00000   0.00000  -0.00000
                          56        57        58        59        60
  56        4YY         0.00100
  57        4ZZ         0.00015   0.00033
  58        4XY        -0.00000  -0.00000   0.00100
  59        4XZ        -0.00000  -0.00000  -0.00000   0.00116
  60        4YZ        -0.00000  -0.00000  -0.00000  -0.00000   0.00021
     Gross orbital populations:
                           1
   1 1   F  1S          1.99322
   2        2S          0.96483
   3        2PX         0.98085
   4        2PY         1.15524
   5        2PZ         1.16064
   6        3S          0.93253
   7        3PX         0.56738
   8        3PY         0.65023
   9        3PZ         0.70229
  10        4XX         0.02967
  11        4YY         0.01486
  12        4ZZ         0.01061
  13        4XY         0.00598
  14        4XZ         0.00394
  15        4YZ         0.00152
  16 2   C  1S          1.99157
  17        2S          0.71782
  18        2PX         0.56694
  19        2PY         0.68380
  20        2PZ         0.54390
  21        3S          0.17550
  22        3PX         0.09936
  23        3PY         0.07945
  24        3PZ         0.27190
  25        4XX         0.01063
  26        4YY         0.01714
  27        4ZZ        -0.02949
  28        4XY         0.06047
  29        4XZ         0.01513
  30        4YZ         0.02230
  31 3   O  1S          1.99278
  32        2S          0.92357
  33        2PX         1.11886
  34        2PY         0.88100
  35        2PZ         0.83017
  36        3S          1.01323
  37        3PX         0.66099
  38        3PY         0.40468
  39        3PZ         0.54966
  40        4XX        -0.01306
  41        4YY         0.00447
  42        4ZZ        -0.00786
  43        4XY         0.00699
  44        4XZ         0.00008
  45        4YZ         0.01081
  46 4   F  1S          1.99330
  47        2S          0.96194
  48        2PX         0.93994
  49        2PY         1.17249
  50        2PZ         1.16396
  51        3S          0.95868
  52        3PX         0.57585
  53        3PY         0.67975
  54        3PZ         0.71781
  55        4XX         0.03143
  56        4YY         0.01092
  57        4ZZ         0.00829
  58        4XY         0.00486
  59        4XZ         0.00333
  60        4YZ         0.00085
          Condensed to atoms (all electrons):
               1          2          3          4
     1  F    8.955351   0.302258  -0.058189  -0.025622
     2  C    0.302258   4.127332   0.517717   0.279121
     3  O   -0.058189   0.517717   7.978445  -0.061602
     4  F   -0.025622   0.279121  -0.061602   9.031508
 Mulliken charges:
               1
     1  F   -0.173797
     2  C    0.773573
     3  O   -0.376371
     4  F   -0.223404
 Sum of Mulliken charges =  -0.00000
 Mulliken charges with hydrogens summed into heavy atoms:
               1
     1  F   -0.173797
     2  C    0.773573
     3  O   -0.376371
     4  F   -0.223404
 Electronic spatial extent (au):  <R**2>=            208.0856
 Charge=              0.0000 electrons
 Dipole moment (field-independent basis, Debye):
    X=             -0.3098    Y=             -1.6147    Z=              0.0684  Tot=              1.6456
 Quadrupole moment (field-independent basis, Debye-Ang):
   XX=            -20.4870   YY=            -22.5703   ZZ=            -18.5182
   XY=              0.2337   XZ=             -0.0040   YZ=             -0.0071
 Traceless Quadrupole moment (field-independent basis, Debye-Ang):
   XX=              0.0382   YY=             -2.0451   ZZ=              2.0070
   XY=              0.2337   XZ=             -0.0040   YZ=             -0.0071
 Octapole moment (field-independent basis, Debye-Ang**2):
  XXX=             -0.2703  YYY=             -8.5325  ZZZ=             -0.0764  XYY=              0.0514
  XXY=             -1.6851  XXZ=             -0.0687  XZZ=             -0.0399  YZZ=             -1.6854
  YYZ=             -0.0594  XYZ=             -0.0010
 Hexadecapole moment (field-independent basis, Debye-Ang**3):
 XXXX=            -88.3363 YYYY=            -91.3185 ZZZZ=            -11.8898 XXXY=              0.5880
 XXXZ=             -0.0057 YYYX=              0.6511 YYYZ=             -0.0226 ZZZX=              0.0012
 ZZZY=             -0.0058 XXYY=            -29.8905 XXZZ=            -16.9943 YYZZ=            -16.3930
 XXYZ=              0.0428 YYXZ=              0.0033 ZZXY=              0.1384
 N-N= 1.145485866249D+02 E-N=-9.703611472970D+02  KE= 3.102968636730D+02
 Orbital energies and kinetic energies (alpha):
                                 1                 2
   1         O               -24.800612         37.082542
   2         O               -24.772154         37.084002
   3         O               -19.195381         29.031928
   4         O               -10.464166         15.895091
   5         O                -1.323730          3.517963
   6         O                -1.258078          3.756302
   7         O                -1.066572          2.838171
   8         O                -0.692208          3.065214
   9         O                -0.617536          2.876137
  10         O                -0.562168          2.445419
  11         O                -0.537270          2.857959
  12         O                -0.478870          3.235672
  13         O                -0.473076          3.252959
  14         O                -0.453354          3.011973
  15         O                -0.378445          2.538108
  16         O                -0.333616          2.658993
  17         V                -0.048590          2.603565
  18         V                 0.026590          3.520130
  19         V                 0.237313          3.405490
  20         V                 0.300097          2.360905
  21         V                 0.465851          2.208063
  22         V                 0.474599          1.881354
  23         V                 0.478670          1.970518
  24         V                 0.565542          3.090915
  25         V                 0.839823          2.654194
  26         V                 0.942205          3.563123
  27         V                 0.948906          3.462856
  28         V                 1.041188          3.281939
  29         V                 1.089874          4.362658
  30         V                 1.118003          3.358754
  31         V                 1.223215          3.044873
  32         V                 1.262373          4.283430
  33         V                 1.275151          4.090899
  34         V                 1.335032          3.608321
  35         V                 1.357060          2.669740
  36         V                 1.369720          2.814953
  37         V                 1.576685          3.691500
  38         V                 1.629968          3.402261
  39         V                 1.748885          3.203528
  40         V                 1.759002          2.827427
  41         V                 1.776261          2.843046
  42         V                 1.796669          3.060591
  43         V                 1.798715          2.832909
  44         V                 1.836432          3.159399
  45         V                 1.884288          3.469205
  46         V                 1.916670          3.405190
  47         V                 1.941522          3.308765
  48         V                 2.050892          3.516274
  49         V                 2.105960          3.702479
  50         V                 2.500157          3.821466
  51         V                 2.573660          3.880840
  52         V                 2.660421          5.569984
  53         V                 2.716307          5.312116
  54         V                 2.923586          5.137935
  55         V                 2.998170          5.396627
  56         V                 3.043282          4.753730
  57         V                 3.725034         10.441739
  58         V                 4.128262         11.146053
  59         V                 4.360348         10.406370
  60         V                 4.603420         12.723514
 Total kinetic energy from orbitals= 3.102968636730D+02
 Unable to Open any file for archive entry.
 1\1\GINC-SPARTAN-BM162\SP\RB3LYP\6-31G(d)\C1F2O1\AKHALILOV\20-Mar-2025
 \0\\# B3LYP/6-31G(d) pop=full density=current\\CF2O Time step 10\\0,1\
 F,0,1.1745,-0.580831,0.041581\C,0,0.030503,0.076702,-0.028048\O,0,0.00
 3287,1.320845,-0.086822\F,0,-1.196534,-0.579647,0.049232\\Version=ES64
 L-G16RevC.01\State=1-A\HF=-312.9861258\RMSD=3.890e-09\Dipole=0.1410683
 ,-0.6316525,0.0167603\Quadrupole=0.0375115,-1.5141159,1.4766044,-0.125
 8666,0.0107363,0.216104\PG=C01 [X(C1F2O1)]\\@
 The archive entry for this job was punched.


 ALL MY ATTEMPTS TO ADAPT THE THEORETICAL FOUNDATIONS OF PHYSICS
 TO THESE NEW NOTIONS FAILED COMPLETELY. IT WAS AS IF THE GROUND HAD
 BEEN PULLED OUT FROM UNDER ONE WITH NO FIRM FOUNDATION TO BE SEEN ANYWHERE,
 UPON WHICH ONE COULD HAVE BUILT.  -- A.EINSTEIN
 Job cpu time:       0 days  0 hours  0 minutes  2.7 seconds.
 Elapsed time:       0 days  0 hours  0 minutes  0.9 seconds.
 File lengths (MBytes):  RWF=      6 Int=      0 D2E=      0 Chk=      1 Scr=      1
 Normal termination of Gaussian 16 at Thu Mar 20 00:07:33 2025.
