CF2O Time step 35                                                       
SP        RB3LYP                                                      6-31G(d)            
Number of atoms                            I                4
Info1-9                                    I   N=           9
          13          13           0           0           0         110
           1          18        -502
Full Title                                 C   N=           2
CF2O Time step 35       
Route                                      C   N=           4
# B3LYP/6-31G(d) pop=full density=current       
Charge                                     I                0
Multiplicity                               I                1
Number of electrons                        I               32
Number of alpha electrons                  I               16
Number of beta electrons                   I               16
Number of basis functions                  I               60
Number of independent functions            I               60
Number of point charges in /Mol/           I                0
Number of translation vectors              I                0
Atomic numbers                             I   N=           4
           9           6           8           9
Nuclear charges                            R   N=           4
  9.00000000E+00  6.00000000E+00  8.00000000E+00  9.00000000E+00
Current cartesian coordinates              R   N=          12
 -2.19740747E+00 -1.30937410E+00 -3.29433675E-02 -1.79360878E-01  9.98620051E-02
  1.32914660E-01 -1.89810512E-01  2.50375629E+00 -3.44260660E-02  2.48570184E+00
 -9.82761724E-01 -2.50654585E-02
Number of symbols in /Mol/                 I                0
Int Atom Types                             I   N=           4
           0           0           0           0
Force Field                                I                0
Atom Types                                 C   N=           4
                                                
MM charges                                 R   N=           4
  0.00000000E+00  0.00000000E+00  0.00000000E+00  0.00000000E+00
Integer atomic weights                     I   N=           4
          19          12          16          19
Real atomic weights                        R   N=           4
  1.89984032E+01  1.20000000E+01  1.59949146E+01  1.89984032E+01
Atom fragment info                         I   N=           4
           0           0           0           0
Atom residue num                           I   N=           4
           0           0           0           0
Nuclear spins                              I   N=           4
           1           0           0           1
Nuclear ZEff                               R   N=           4
 -6.75000000E+00 -3.60000000E+00 -5.60000000E+00 -6.75000000E+00
Nuclear ZNuc                               R   N=           4
  9.00000000E+00  6.00000000E+00  8.00000000E+00  9.00000000E+00
Nuclear QMom                               R   N=           4
  0.00000000E+00  0.00000000E+00  0.00000000E+00  0.00000000E+00
Nuclear GFac                               R   N=           4
  2.62886700E+00  0.00000000E+00  0.00000000E+00  2.62886700E+00
MicOpt                                     I   N=           4
          -1          -1          -1          -1
Number of residues                         I                0
Number of secondary structures             I                0
SymInf integers                            I   N=          26
           1           1           1           1           1           0
           0           0           0           0           0           0
           0           0           0           0           0           0
           0           0           0           0           0           0
           0           0
RotTr to input orientation                 R   N=          12
 -9.97088719E-01 -7.55702025E-02  1.01602729E-02 -7.60930221E-02  9.94710917E-01
 -6.89930707E-02 -4.89271408E-03 -6.95653383E-02 -9.97565399E-01  1.70618647E-03
  3.49562720E-02 -3.32320150E-03
Number of contracted shells                I               16
Number of primitive shells                 I               44
Pure/Cartesian d shells                    I                1
Pure/Cartesian f shells                    I                0
Highest angular momentum                   I                2
Largest degree of contraction              I                6
Shell types                                I   N=          16
           0          -1          -1           2           0          -1
          -1           2           0          -1          -1           2
           0          -1          -1           2
Number of primitives per shell             I   N=          16
           6           3           1           1           6           3
           1           1           6           3           1           1
           6           3           1           1
Shell to atom map                          I   N=          16
           1           1           1           1           2           2
           2           2           3           3           3           3
           4           4           4           4
Primitive exponents                        R   N=          44
  7.00171309E+03  1.05136609E+03  2.39285690E+02  6.73974453E+01  2.15199573E+01
  7.40310130E+00  2.08479528E+01  4.80830834E+00  1.34406986E+00  3.58151393E-01
  8.00000000E-01  3.04752488E+03  4.57369518E+02  1.03948685E+02  2.92101553E+01
  9.28666296E+00  3.16392696E+00  7.86827235E+00  1.88128854E+00  5.44249258E-01
  1.68714478E-01  8.00000000E-01  5.48467166E+03  8.25234946E+02  1.88046958E+02
  5.29645000E+01  1.68975704E+01  5.79963534E+00  1.55396162E+01  3.59993359E+00
  1.01376175E+00  2.70005823E-01  8.00000000E-01  7.00171309E+03  1.05136609E+03
  2.39285690E+02  6.73974453E+01  2.15199573E+01  7.40310130E+00  2.08479528E+01
  4.80830834E+00  1.34406986E+00  3.58151393E-01  8.00000000E-01
Contraction coefficients                   R   N=          44
  1.81961690E-03  1.39160796E-02  6.84053245E-02  2.33185760E-01  4.71267439E-01
  3.56618546E-01 -1.08506975E-01 -1.46451658E-01  1.12868858E+00  1.00000000E+00
  1.00000000E+00  1.83473713E-03  1.40373228E-02  6.88426223E-02  2.32184443E-01
  4.67941348E-01  3.62311985E-01 -1.19332420E-01 -1.60854152E-01  1.14345644E+00
  1.00000000E+00  1.00000000E+00  1.83107443E-03  1.39501722E-02  6.84450781E-02
  2.32714336E-01  4.70192898E-01  3.58520853E-01 -1.10777550E-01 -1.48026263E-01
  1.13076702E+00  1.00000000E+00  1.00000000E+00  1.81961690E-03  1.39160796E-02
  6.84053245E-02  2.33185760E-01  4.71267439E-01  3.56618546E-01 -1.08506975E-01
 -1.46451658E-01  1.12868858E+00  1.00000000E+00  1.00000000E+00
P(S=P) Contraction coefficients            R   N=          44
  0.00000000E+00  0.00000000E+00  0.00000000E+00  0.00000000E+00  0.00000000E+00
  0.00000000E+00  7.16287242E-02  3.45912103E-01  7.22469956E-01  1.00000000E+00
  0.00000000E+00  0.00000000E+00  0.00000000E+00  0.00000000E+00  0.00000000E+00
  0.00000000E+00  0.00000000E+00  6.89990666E-02  3.16423961E-01  7.44308291E-01
  1.00000000E+00  0.00000000E+00  0.00000000E+00  0.00000000E+00  0.00000000E+00
  0.00000000E+00  0.00000000E+00  0.00000000E+00  7.08742682E-02  3.39752839E-01
  7.27158577E-01  1.00000000E+00  0.00000000E+00  0.00000000E+00  0.00000000E+00
  0.00000000E+00  0.00000000E+00  0.00000000E+00  0.00000000E+00  7.16287242E-02
  3.45912103E-01  7.22469956E-01  1.00000000E+00  0.00000000E+00
Coordinates of each shell                  R   N=          48
 -2.19740747E+00 -1.30937410E+00 -3.29433675E-02 -2.19740747E+00 -1.30937410E+00
 -3.29433675E-02 -2.19740747E+00 -1.30937410E+00 -3.29433675E-02 -2.19740747E+00
 -1.30937410E+00 -3.29433675E-02 -1.79360878E-01  9.98620051E-02  1.32914660E-01
 -1.79360878E-01  9.98620051E-02  1.32914660E-01 -1.79360878E-01  9.98620051E-02
  1.32914660E-01 -1.79360878E-01  9.98620051E-02  1.32914660E-01 -1.89810512E-01
  2.50375629E+00 -3.44260660E-02 -1.89810512E-01  2.50375629E+00 -3.44260660E-02
 -1.89810512E-01  2.50375629E+00 -3.44260660E-02 -1.89810512E-01  2.50375629E+00
 -3.44260660E-02  2.48570184E+00 -9.82761724E-01 -2.50654585E-02  2.48570184E+00
 -9.82761724E-01 -2.50654585E-02  2.48570184E+00 -9.82761724E-01 -2.50654585E-02
  2.48570184E+00 -9.82761724E-01 -2.50654585E-02
Num ILSW                                   I              100
ILSW                                       I   N=         100
           0           1           0           0           2           0
           0           0           0           0         402          -1
           5           0           0           0           0           0
           0           0           1           0           0           0
           1           0           0           0           0           0
           0           0      100000           0          -1           0
           0           0           0           0           0           0
           0           0           0           1           0           0
           0 -2000000000           1           0           0           0
           0           0           4          52           0           0
           0           0           5           0           0           0
           0           0           0           0           0           1
           0           0           0           0           0           0
           0           0           0           0           0           0
           0           0           0           0           0           0
           0           0           0           0           0           0
           0           0           0           0
Num RLSW                                   I               52
RLSW                                       R   N=          52
  8.00000000E-01  7.20000000E-01  1.00000000E+00  8.10000000E-01  2.00000000E-01
  0.00000000E+00  0.00000000E+00  1.00000000E+00  0.00000000E+00  0.00000000E+00
  0.00000000E+00  0.00000000E+00  1.00000000E+00  0.00000000E+00  0.00000000E+00
  0.00000000E+00  0.00000000E+00  1.00000000E+00  0.00000000E+00  0.00000000E+00
  0.00000000E+00  0.00000000E+00  1.00000000E+00  0.00000000E+00  0.00000000E+00
  0.00000000E+00  0.00000000E+00  1.00000000E+00  0.00000000E+00  0.00000000E+00
  0.00000000E+00  0.00000000E+00  1.00000000E+00  0.00000000E+00  0.00000000E+00
  0.00000000E+00  0.00000000E+00  0.00000000E+00  1.00000000E+00  1.00000000E+00
  0.00000000E+00  1.00000000E+00  0.00000000E+00  0.00000000E+00  0.00000000E+00
  0.00000000E+00  0.00000000E+00  0.00000000E+00  0.00000000E+00  0.00000000E+00
  0.00000000E+00  0.00000000E+00
MxBond                                     I                3
NBond                                      I   N=           4
           1           3           1           1
IBond                                      I   N=          12
           2           0           0           1           3           4
           2           0           0           2           0           0
RBond                                      R   N=          12
  1.00000000E+00  0.00000000E+00  0.00000000E+00  1.00000000E+00  2.00000000E+00
  1.00000000E+00  2.00000000E+00  0.00000000E+00  0.00000000E+00  1.00000000E+00
  0.00000000E+00  0.00000000E+00
Virial Ratio                               R      2.009348135482306E+00
SCF Energy                                 R     -3.129569151161685E+02
Total Energy                               R     -3.129569151161685E+02
RMS Density                                R      3.503019069449918E-09
Job Status                                 I                1
Nuclear derivative order                   I                0
External E-field                           R   N=          35
  0.00000000E+00  0.00000000E+00  0.00000000E+00  0.00000000E+00  0.00000000E+00
  0.00000000E+00  0.00000000E+00  0.00000000E+00  0.00000000E+00  0.00000000E+00
  0.00000000E+00  0.00000000E+00  0.00000000E+00  0.00000000E+00  0.00000000E+00
  0.00000000E+00  0.00000000E+00  0.00000000E+00  0.00000000E+00  0.00000000E+00
  0.00000000E+00  0.00000000E+00  0.00000000E+00  0.00000000E+00  0.00000000E+00
  0.00000000E+00  0.00000000E+00  0.00000000E+00  0.00000000E+00  0.00000000E+00
  0.00000000E+00  0.00000000E+00  0.00000000E+00  0.00000000E+00  0.00000000E+00
IOpCl                                      I                0
IROHF                                      I                0
Alpha Orbital Energies                     R   N=          60
 -2.48244339E+01 -2.47430863E+01 -1.92107120E+01 -1.04744520E+01 -1.34207658E+00
 -1.20341043E+00 -1.06106042E+00 -7.02353997E-01 -5.95310445E-01 -5.68208875E-01
 -5.44343885E-01 -4.64954049E-01 -4.51554236E-01 -4.34741378E-01 -3.79703627E-01
 -3.38186127E-01 -8.18645265E-02 -1.57887420E-02  1.89170218E-01  2.83590278E-01
  4.68306000E-01  4.75877965E-01  4.94055042E-01  5.45447967E-01  8.37894370E-01
  9.32217906E-01  9.37185569E-01  1.03986659E+00  1.07795572E+00  1.11775167E+00
  1.21898987E+00  1.25781118E+00  1.26018816E+00  1.33177690E+00  1.35509642E+00
  1.38396166E+00  1.52801880E+00  1.60540920E+00  1.72662258E+00  1.74921334E+00
  1.76881307E+00  1.78365238E+00  1.81723725E+00  1.82435033E+00  1.83830652E+00
  1.89689841E+00  1.93683479E+00  1.97218799E+00  2.09962564E+00  2.36678091E+00
  2.54329595E+00  2.55661768E+00  2.66082380E+00  2.82436101E+00  2.96493141E+00
  3.01639038E+00  3.68473943E+00  4.02685972E+00  4.20144083E+00  4.58165679E+00
Alpha MO coefficients                      R   N=        3600
  9.92972140E-01  1.94802187E-02  7.18043853E-04  4.36598910E-04  6.77711895E-05
  1.57412371E-02 -3.29318085E-04 -2.08459566E-04 -2.10379582E-05 -8.41206190E-03
 -8.23566805E-03 -8.08044044E-03 -2.69489847E-04 -3.13289034E-05 -2.22277074E-05
  1.54530978E-05  4.63915965E-04 -5.96378893E-04 -3.63104549E-04 -5.86511872E-05
 -5.57487758E-04  8.02918916E-04  6.05991123E-04  2.81403870E-05  2.63078643E-04
  1.60836772E-04 -4.75174407E-05  1.75284672E-04  1.90006556E-05  9.72447781E-06
  2.29023138E-05  1.54144863E-04  1.58696937E-05 -4.12508041E-06  1.97147637E-06
 -5.83652376E-04 -1.24684527E-04  2.33608323E-04 -2.49748251E-05  5.34195351E-05
 -4.63359449E-05  1.08885628E-04 -3.70792226E-05 -7.44350454E-06  6.37336552E-06
  2.33462551E-05  2.11810214E-04 -3.61942289E-05  2.49205741E-05  3.23130743E-06
 -6.59369182E-04  1.03060779E-04 -1.40166465E-04 -1.52243257E-05  1.05877873E-04
  1.51826846E-04  1.79586319E-04  1.70054400E-05  1.78656783E-06 -6.90800371E-06
  6.34768750E-05  2.94394162E-04  2.46981251E-05  3.54069615E-05  3.50088430E-06
 -9.27382903E-04 -1.35569379E-04 -2.92359631E-04 -2.92776605E-05  1.68979723E-04
  1.07551722E-04  2.65585779E-04 -9.50336711E-05 -9.04677889E-06 -2.50138419E-05
  2.77884941E-05 -2.00471570E-04  2.32810912E-04 -1.12285745E-04 -3.34925530E-05
 -2.68234067E-04 -7.13990035E-04  3.55599466E-04  4.08108821E-06  7.54499670E-04
  2.59420151E-04  1.08195111E-04 -2.19518493E-04 -2.76286728E-05  9.18449504E-06
  3.27684524E-05  1.98596081E-04  2.30031604E-06 -2.75538532E-05  2.20351422E-06
 -6.83910115E-04  1.01930313E-04  3.05488819E-04 -2.39150540E-05  5.84350785E-05
 -1.04539532E-05  1.69101808E-04 -6.34899907E-06  1.31574156E-05  1.30503960E-05
  9.93036800E-01  1.95621330E-02 -5.71141463E-04  1.50254824E-04  4.11963503E-05
  1.50976505E-02  1.34897362E-04 -2.53595374E-05 -4.71610614E-06 -8.20326238E-03
 -7.97852993E-03 -7.94765766E-03  1.22733473E-04  1.77702310E-05 -7.72575553E-06
  1.43836365E-05  9.13136134E-05  2.98475143E-05 -3.26165407E-05  7.77594516E-06
 -2.32744375E-04 -7.89153203E-05  1.87825317E-04 -2.84875367E-05  1.14829157E-04
 -3.71809323E-05  7.77153385E-05 -8.69326007E-06  5.12549350E-06  7.90085022E-06
  3.08167954E-05  6.38840481E-04  3.34885351E-05  1.56959699E-04 -1.09725339E-05
 -2.68530213E-03 -1.75604385E-05 -1.98519213E-03  1.46545316E-04  1.52804157E-05
 -5.10778754E-04  3.55520064E-05 -2.41787814E-05 -2.26318631E-06  4.42029745E-05
  9.92861095E-01  2.57971372E-02 -2.70368408E-05 -1.06677508E-03  8.93507025E-05
  1.18569016E-02  3.07511305E-05 -1.03822079E-03  6.51219670E-05 -7.83385668E-03
 -7.54809417E-03 -7.85218416E-03 -1.00798830E-05  1.06237495E-06 -2.15243457E-05
  1.04412353E-05  7.75599159E-05 -1.94197966E-05 -1.75252456E-05  3.79392114E-06
 -1.22507936E-04  8.26054984E-05  1.28287918E-04 -1.88122884E-05  2.11589899E-05
 -1.25709143E-05  8.99378699E-05  2.48561083E-05  6.11412505E-06  6.52377536E-06
  5.06409954E-05  8.35791148E-04  9.50635257E-05  7.14984639E-05  1.51749039E-05
 -2.96770624E-03 -1.91754553E-03 -1.34005815E-03 -1.91718392E-04 -3.08337623E-04
  3.01059461E-04  7.38721012E-04 -7.47400435E-04 -1.15310129E-04 -7.41913749E-05
  9.93076927E-01  4.55600448E-02 -1.01756503E-03 -1.48975743E-03 -1.19840124E-04
 -4.28722413E-03 -9.33991470E-04 -1.88426371E-04 -3.24795218E-05 -7.89520935E-03
 -8.12678381E-03 -9.26245690E-03  6.45595994E-04  6.75153969E-05  3.73347982E-05
 -1.63339073E-04 -1.36404565E-04 -4.70088427E-05 -1.90833871E-05 -4.05745371E-06
  5.02614841E-04  2.28839628E-04  5.40054155E-04 -4.17844795E-05 -1.26226384E-04
 -1.44711802E-04 -5.57341410E-05  2.64846986E-05 -4.03176269E-06  2.33964277E-05
 -7.31100246E-05 -1.53585240E-04 -1.03408093E-04  1.25984325E-05  5.55512001E-06
  1.13461956E-03  6.18258742E-04 -1.09521639E-04 -2.75246645E-05 -8.05296676E-04
 -1.36783623E-04 -2.02051261E-05  3.11476317E-04  5.72658210E-05 -1.97410196E-05
 -2.15958458E-01  4.91601509E-01  9.36730443E-02  6.26937269E-02  8.02659641E-03
  4.30514848E-01  4.41472314E-02  2.84808089E-02  3.71862090E-03  2.33779358E-02
  1.40967383E-02  9.64835248E-03  1.08955601E-02  1.47391822E-03  9.89449553E-04
 -7.57626432E-02  1.47018963E-01 -9.65626452E-02 -6.71079643E-02 -8.74716846E-03
  2.65616441E-02  8.12762255E-03  1.63071506E-04  2.10074050E-03  8.22637303E-03
 -2.81385132E-03 -1.56845166E-02  2.19187775E-02  2.25944867E-03  1.64542295E-03
 -1.62624618E-02  3.59619729E-02 -5.43145252E-03 -2.21348870E-02  7.42157941E-04
  3.03412410E-02 -5.76873815E-03 -1.29908634E-02 -2.33093156E-04 -1.25474940E-03
  6.12945664E-03 -4.10602281E-04  2.88520073E-03 -2.88683326E-04 -1.22860111E-04
 -2.13085840E-02  4.67309642E-02 -1.32346185E-02  2.67364789E-03  4.89181808E-04
  4.16683719E-02 -1.33514588E-02  8.39219920E-04 -8.02012705E-05  7.72842929E-03
 -1.30398411E-04 -1.83375775E-04 -1.93902887E-03 -3.09942826E-04  4.83023911E-05
  3.63790800E-02 -8.32452691E-02 -1.48684780E-03 -6.36005025E-03 -1.20946162E-03
 -8.02390060E-02  4.63734815E-03 -1.30851351E-03 -9.15487885E-04  1.20648822E-03
 -2.13357796E-03 -2.15114023E-03  7.35148989E-04 -5.59998968E-05 -9.36132562E-05
 -4.31704804E-02  8.88407694E-02  9.04148754E-02  3.42378398E-03 -3.86196940E-03
  2.67365716E-02 -1.28938269E-03 -7.23136954E-03  1.02613407E-03  2.11332063E-03
 -2.59562493E-03 -6.75273276E-03 -1.32127777E-02 -1.47641764E-03 -2.91082882E-04
 -2.65843406E-02  5.76492447E-02  8.60643797E-03 -2.80532894E-02  1.42712307E-03
  5.34462718E-02  6.36141441E-03 -1.24895328E-02  3.60594870E-04 -1.37724319E-03
  3.90533476E-03 -1.21760690E-03 -2.60188359E-03  1.49825237E-04 -3.38239274E-04
 -2.23293519E-01  4.98558581E-01 -6.18706635E-02  2.26787707E-02  3.86490629E-03
  4.86121827E-01 -4.20032729E-02  1.46915989E-02  2.62037845E-03  2.33797962E-02
  6.88301777E-03  5.91759418E-03 -7.39741971E-03 -1.40361783E-03  5.12055689E-04
  3.46315521E-02 -7.92135277E-02  1.96313411E-03  2.63665131E-02 -1.02727542E-03
 -8.20805150E-02  5.48424126E-03  2.15904124E-02 -7.22410301E-04 -6.05682510E-04
  2.97919520E-03 -1.69123367E-03  5.07639097E-03 -1.21199114E-04  3.31146434E-04
 -8.72337659E-02  1.90514334E-01 -2.56202199E-03  2.14958727E-01 -1.08470055E-02
  3.39521422E-02 -6.12223440E-05 -1.13297839E-02  2.45751844E-03 -2.47493389E-02
  2.24941142E-02 -1.33083439E-02 -3.64468914E-03 -1.36774965E-04 -3.84192908E-03
 -1.95609837E-01  4.35577753E-01 -2.00643994E-03 -1.51035249E-01  1.06194065E-02
  4.04792911E-01 -2.32590074E-03 -5.75453486E-02  3.74522868E-03 -9.38120829E-03
  1.08538967E-02 -5.30347278E-03  2.60419671E-04 -9.96167220E-06 -1.62639808E-03
  5.01019926E-02 -1.11939006E-01 -4.67963728E-03  1.47841279E-02 -3.89268409E-04
 -1.21256000E-01 -3.11271693E-03  1.12691795E-02 -5.80196720E-04  3.76886290E-04
  1.30835703E-04 -1.18796376E-03 -2.69863463E-03  4.11442514E-05  1.19097155E-04
  8.39302129E-02 -1.75366732E-01  4.07875764E-01  2.38351793E-01  3.53182408E-02
 -3.01347415E-01  2.29245491E-01  1.30474584E-01  1.96818079E-02  2.28110854E-02
  5.46799582E-03 -6.98600958E-04  1.47149525E-02  2.47919184E-03  1.35468136E-03
 -1.19892421E-01  2.91819655E-01 -1.14308703E-01 -1.83559452E-01 -4.68204532E-03
  1.63418320E-01  8.78491821E-03 -1.80477550E-02  4.02696879E-03  3.96206754E-03
 -1.18696863E-02 -1.35709326E-02  1.46803186E-02  1.27239630E-03  1.99048204E-03
  5.57751299E-02 -1.24325035E-01 -1.99575976E-02 -5.20530489E-02  9.24943463E-04
 -1.63958690E-01 -1.54673863E-02 -2.87819133E-02 -3.02808920E-04  9.44092931E-04
  1.09749819E-02  1.42596396E-03  3.91671542E-03 -3.73722300E-04 -1.35527889E-04
  3.36503205E-02 -6.82068670E-02 -1.22430826E-01  1.48881783E-02  6.36897639E-03
 -1.22513723E-01 -7.65959489E-02  4.15829167E-03  3.12068861E-03  1.59830633E-02
  4.33646157E-04  1.38772178E-03 -2.29458700E-03 -7.47455890E-04  2.70403303E-05
  1.46503796E-02 -2.41600829E-02 -1.60219603E-03  3.65480895E-01  3.06305037E-02
 -6.42425812E-02 -1.51289255E-02  2.21238872E-01  1.92240939E-02 -8.41794659E-03
  1.64503645E-02  1.70516758E-03  9.18634611E-03  7.53235214E-04  1.99321132E-03
  4.78379931E-02 -1.14704214E-01 -3.24843683E-01  6.45791583E-02  1.96263581E-03
 -9.78871120E-02 -6.48976489E-02  5.97880719E-02  1.49198809E-04  9.90426140E-03
 -3.84346214E-03  7.70500965E-04  1.11383750E-02  2.40970619E-03 -6.75469555E-04
 -1.49832829E-02  3.80850659E-02 -1.24003443E-01  3.62243369E-02 -8.95026467E-04
  2.29926284E-02 -7.12837845E-02  2.64981163E-02 -2.10330830E-03  2.33887288E-03
 -2.50231238E-03  8.36696898E-04  1.27315710E-02 -8.74686897E-04  9.44674255E-05
 -5.61815139E-02  1.06588277E-01  3.44361891E-01 -1.46574313E-01 -2.22370810E-02
  2.26512727E-01  2.05876957E-01 -9.02498664E-02 -1.33505779E-02 -2.40841335E-02
 -8.49640267E-03 -4.90316834E-03  8.47094203E-03  1.53571328E-03 -6.94952019E-04
 -3.92904820E-04 -3.25368132E-06 -3.72236872E-02 -3.67627973E-02  5.56896601E-01
  1.97971924E-03 -2.29106037E-02 -2.18786943E-02  3.57263734E-01 -2.56979488E-03
 -1.60126384E-03  3.31158441E-03 -1.87881046E-03  2.37246635E-02  1.50577225E-02
 -5.73582765E-03  1.40174517E-02  3.72554732E-03 -2.68115988E-03  2.74721095E-01
  6.50305513E-03 -6.64382399E-03 -1.08458182E-02  1.34820186E-01  5.42217112E-04
  1.01005685E-03 -3.41922198E-03  9.09867776E-04 -1.71638573E-02 -9.35463171E-03
 -2.46036477E-03  2.18261981E-03  3.67844304E-03  1.44809477E-02  1.23432913E-01
  2.34712049E-02  4.90877292E-03  1.05752093E-03  5.67390840E-02 -1.23653312E-03
 -2.48797460E-03 -1.34823418E-05 -5.74261528E-04 -9.23220477E-04 -1.09538021E-02
  5.21112203E-05 -2.83111649E-03  3.19307295E-03 -1.65086397E-04  1.15754477E-01
  6.69600642E-03  4.19194873E-04  3.01805563E-03  6.92245294E-02 -1.57702006E-03
 -9.32594826E-04 -7.57342698E-04 -3.96225264E-04 -6.22476292E-03  1.38577194E-03
  5.79212880E-03 -5.58008654E-03  3.51216563E-01 -2.85309578E-01  1.14971853E-02
 -3.59853366E-02  2.14049517E-01 -1.86438795E-01  6.58107788E-03  1.79384524E-02
 -1.11485590E-02  1.23498243E-03 -6.39109326E-03  1.15626951E-03 -1.06960689E-03
  5.78180729E-02 -1.51765314E-01 -7.39286513E-02 -2.10232104E-01 -5.34275455E-03
 -1.31606000E-01  1.40687841E-02 -9.92790259E-02 -3.69939199E-03 -7.98009589E-03
  2.03036281E-02  2.94182110E-03  1.58931194E-02  2.98562170E-04  1.70998669E-03
 -9.14248288E-02  1.90583773E-01 -1.50951816E-02  2.93704271E-01 -2.57785819E-02
  3.96945880E-01 -1.21073069E-02  1.20924329E-01 -9.45387707E-03 -7.33318744E-03
 -2.56964732E-02 -3.15613511E-03  3.04317089E-03 -3.59775829E-04  2.26084116E-03
 -1.31578213E-02  2.90914522E-02  9.76793879E-02 -1.56237091E-01 -1.47989966E-02
  3.66794328E-02  6.77478370E-02 -1.00976278E-01 -1.09347190E-02 -4.03824318E-03
 -1.33250248E-03  4.09614256E-04  8.42641444E-03  9.92370187E-04 -6.64091510E-04
  3.49475490E-04  7.31284523E-03 -2.07814407E-01  3.35907942E-01  8.39526415E-03
 -2.37659714E-02 -1.45090755E-01  2.15559077E-01  4.76414613E-03 -4.84258138E-03
  1.03494501E-02  3.21963296E-03  1.88212094E-03 -4.61325905E-04  6.42694963E-04
  3.17095609E-02 -9.05675462E-02  7.22667323E-02 -2.39596491E-01 -3.50870066E-03
 -1.33638764E-02 -2.10190135E-02 -6.82162708E-03 -4.34215242E-03  3.19138160E-02
 -1.74809286E-02  2.50603164E-03 -1.26950317E-02  1.09966743E-04  5.88548481E-05
 -5.63446257E-02  1.20866163E-01  1.33087550E-03  3.69801447E-01 -4.21713100E-02
  2.19832029E-01  1.18923375E-03  2.01109626E-01 -2.55205272E-02  1.91416108E-03
 -2.14744593E-02  1.23662417E-03 -2.60358784E-03  3.56308566E-04  3.09452509E-03
  1.15744636E-02 -2.39835142E-02 -3.27840073E-01 -2.00049827E-02  2.29303092E-02
 -2.90110648E-02 -2.24495279E-01 -1.26642104E-02  1.69561364E-02  1.30014450E-02
 -3.74027901E-03 -1.35325410E-03 -2.73338900E-04 -1.43049966E-03 -1.15605174E-04
 -6.70161152E-04 -2.95303416E-03  1.40734537E-02  5.94324304E-03 -2.78358523E-01
  1.41708367E-02  1.13397265E-02  8.93766788E-03 -2.03947452E-01 -1.32454674E-03
 -9.94878062E-04 -3.21545538E-03  7.26981701E-04 -6.57261650E-03 -4.82860074E-03
 -3.85074677E-03  8.61544548E-03 -2.18797979E-03  4.67646433E-04  1.59670845E-01
  6.33180343E-03  1.28723733E-02 -6.24207908E-03  1.04411243E-01 -1.52309514E-03
  7.95003073E-04 -1.25482839E-03 -2.95622660E-03  2.29883442E-02  8.04195727E-03
 -9.62968194E-04  2.54132202E-04 -1.57259707E-02  1.50037571E-02  1.62661750E-01
  1.25873229E-02 -1.65983542E-02  4.90202289E-03  9.41669410E-02 -9.51968558E-04
 -1.69232144E-03  6.52235525E-04  1.77254344E-03  1.98409818E-03 -1.09793356E-02
  1.87371485E-04  9.86068739E-04  2.49107240E-02 -5.13922686E-02  5.53443520E-01
 -5.89564199E-03  1.78051619E-02 -3.65327871E-02  3.80645231E-01 -4.81482071E-04
 -3.86920390E-04  2.58010311E-03  1.85236973E-03 -1.78462422E-02  6.19034581E-03
 -8.04291382E-03  9.42013611E-04  9.76832748E-02  8.22170737E-02 -3.45756576E-03
  1.02866373E-01  7.86069878E-02  5.61083139E-02  1.11613608E-04 -6.58021762E-03
 -1.08189474E-02 -7.43328997E-03  1.75275917E-03  1.50271855E-04 -3.46031020E-04
  1.89218567E-02 -4.84083083E-02  1.81042960E-02 -7.80712941E-02  1.47359604E-03
 -2.10156473E-02  6.92315701E-02  1.24658027E-01  2.64076977E-03  2.00803131E-02
 -1.21565764E-02  2.78873208E-04  2.41611699E-02  1.35288629E-03 -4.49397749E-04
 -1.29734424E-02  3.82178862E-02  1.29474590E-01  1.58256418E-01 -1.56474555E-02
 -2.04076770E-02  8.27101186E-02  1.12624063E-01 -1.52063265E-02  7.81721016E-03
 -6.06064530E-03  3.82576095E-03 -6.68520007E-03  4.51021942E-04  1.49068600E-03
 -3.51686242E-04  7.13351066E-03  2.17397795E-01  5.76252978E-01  4.57953200E-02
 -1.29004319E-02  1.49700266E-01  3.82834561E-01  3.12966770E-02 -6.35720302E-03
  1.01615296E-02  3.43121577E-03 -1.11321336E-02 -8.72255330E-04  1.24343869E-03
 -4.07791132E-04  9.42292527E-04  8.37776327E-03  1.97292962E-02 -1.98254496E-01
  2.83114117E-03  8.34373541E-03  9.82085560E-03 -1.42840811E-01  4.19093086E-04
 -3.42246970E-04 -2.98008673E-04 -1.46461849E-04 -2.26493671E-03  1.39117068E-03
 -3.82233710E-03  5.72867639E-03 -3.57777407E-04 -8.00758933E-03  2.45923432E-01
  3.60226780E-02 -1.82013680E-03  2.27265683E-02  8.79217903E-02 -1.43293188E-05
  8.63282167E-04 -1.52478061E-03  4.16293185E-04 -4.19960752E-03  3.51969169E-02
 -3.75448512E-04  3.56916320E-03  5.01397844E-03  6.61270145E-02  4.95171232E-01
 -1.68303730E-02  4.36527389E-03  4.94261105E-02  3.36696723E-01  1.57880298E-03
 -4.22814837E-03  5.19720043E-03 -4.76062833E-04 -1.18615066E-03 -2.94925192E-02
 -3.11977854E-04  3.84114777E-04 -1.53908694E-02  2.23134450E-02 -3.29410484E-01
  2.37073021E-03 -1.22557222E-02  1.27434794E-02 -2.34500726E-01  7.34848607E-04
 -3.25709078E-04 -8.45442385E-04  8.89695073E-05  5.64587247E-03  5.67070175E-04
 -9.83166960E-03  1.77681821E-02  2.38948253E-02  1.47055274E-01  5.01911411E-03
  7.89188267E-02  2.46104266E-02  1.13264663E-01  5.36436275E-03 -4.63765286E-03
 -1.58382695E-03 -1.93233093E-03  4.05264325E-03 -2.68486247E-04  4.01368238E-04
 -2.78842481E-03  1.06806248E-02  7.56437190E-02  8.25072234E-03 -2.55163865E-03
 -3.13812502E-02  1.05220758E-01 -1.00211220E-02  1.24426259E-03 -5.89181344E-03
  2.23742689E-03 -3.42568920E-04  3.96728690E-02 -6.10261878E-04  2.02028741E-04
 -1.56291534E-03  5.61424016E-03  6.10258891E-01 -2.17399609E-02  3.58332027E-03
  1.17845459E-02  3.98438285E-01 -1.77890127E-02  2.72730592E-03 -2.04900356E-03
  2.67023017E-03  9.77917796E-04 -2.57804424E-02  2.17921266E-03 -1.78869761E-04
  8.52526417E-03 -1.80988157E-02  1.06165728E-01 -2.38333216E-01 -3.54038266E-03
 -5.89300238E-02  9.14917554E-02 -1.69401394E-01 -4.71462746E-03 -4.42251815E-03
  2.70948422E-03  9.39827498E-04  5.41384661E-03  4.72914003E-04 -4.96438991E-04
  2.17596459E-02 -4.51367184E-02 -1.18971141E-01 -3.09818195E-02 -2.12193278E-01
 -1.65819168E-01 -1.19716537E-01 -4.33852027E-02 -1.76678376E-01  3.70368013E-03
 -5.14057102E-04  7.94274569E-03 -2.42154385E-03  1.26505574E-02  6.07124154E-03
 -7.30600686E-02  1.44657389E-01  6.95121756E-02 -1.23106090E-01  5.41171050E-01
  5.21546058E-01  7.38705368E-03 -4.98910300E-02  3.64984170E-01 -1.85788085E-02
 -1.27017001E-02  1.30876595E-02 -3.49006228E-03  6.49264724E-04 -2.16123175E-02
  1.29839005E-02 -2.69400172E-02 -2.41363582E-02  6.32310979E-02 -3.75433588E-01
 -1.14359414E-01 -2.01429873E-02  8.17843656E-02 -3.43993846E-01  2.09097948E-03
 -2.75914797E-03  6.82618754E-03 -9.65711463E-04  7.43549092E-04 -2.76889598E-03
  2.15881450E-02 -4.85638080E-02  1.67424119E-01 -3.62782591E-02 -1.66349638E-01