 Entering Gaussian System, Link 0=g16
 Input=CF2O_1000K_step0045.gjf
 Output=CF2O_1000K_step0045.log
 Initial command:
 /apps/easybuild-2022/easybuild/software/Compiler/NVHPC/22.11-CUDA-11.7.0/Gaussian/g16c01-CUDA-11.7.0/g16/l1.exe "/tmp/Gau-265796.inp" -scrdir="/tmp/"
 Default is to use a total of   4 processors:
                                4 via shared-memory
                                1 via Linda
 Entering Link 1 = /apps/easybuild-2022/easybuild/software/Compiler/NVHPC/22.11-CUDA-11.7.0/Gaussian/g16c01-CUDA-11.7.0/g16/l1.exe PID=    265797.
  
 Copyright (c) 1988-2019, Gaussian, Inc.  All Rights Reserved.
  
 This is part of the Gaussian(R) 16 program.  It is based on
 the Gaussian(R) 09 system (copyright 2009, Gaussian, Inc.),
 the Gaussian(R) 03 system (copyright 2003, Gaussian, Inc.),
 the Gaussian(R) 98 system (copyright 1998, Gaussian, Inc.),
 the Gaussian(R) 94 system (copyright 1995, Gaussian, Inc.),
 the Gaussian 92(TM) system (copyright 1992, Gaussian, Inc.),
 the Gaussian 90(TM) system (copyright 1990, Gaussian, Inc.),
 the Gaussian 88(TM) system (copyright 1988, Gaussian, Inc.),
 the Gaussian 86(TM) system (copyright 1986, Carnegie Mellon
 University), and the Gaussian 82(TM) system (copyright 1983,
 Carnegie Mellon University). Gaussian is a federally registered
 trademark of Gaussian, Inc.
  
 This software contains proprietary and confidential information,
 including trade secrets, belonging to Gaussian, Inc.
  
 This software is provided under written license and may be
 used, copied, transmitted, or stored only in accord with that
 written license.
  
 The following legend is applicable only to US Government
 contracts under FAR:
  
                    RESTRICTED RIGHTS LEGEND
  
 Use, reproduction and disclosure by the US Government is
 subject to restrictions as set forth in subparagraphs (a)
 and (c) of the Commercial Computer Software - Restricted
 Rights clause in FAR 52.227-19.
  
 Gaussian, Inc.
 340 Quinnipiac St., Bldg. 40, Wallingford CT 06492
  
  
 ---------------------------------------------------------------
 Warning -- This program may not be used in any manner that
 competes with the business of Gaussian, Inc. or will provide
 assistance to any competitor of Gaussian, Inc.  The licensee
 of this program is prohibited from giving any competitor of
 Gaussian, Inc. access to this program.  By using this program,
 the user acknowledges that Gaussian, Inc. is engaged in the
 business of creating and licensing software in the field of
 computational chemistry and represents and warrants to the
 licensee that it is not a competitor of Gaussian, Inc. and that
 it will not use this program in any manner prohibited above.
 ---------------------------------------------------------------
  

 Cite this work as:
 Gaussian 16, Revision C.01,
 M. J. Frisch, G. W. Trucks, H. B. Schlegel, G. E. Scuseria, 
 M. A. Robb, J. R. Cheeseman, G. Scalmani, V. Barone, 
 G. A. Petersson, H. Nakatsuji, X. Li, M. Caricato, A. V. Marenich, 
 J. Bloino, B. G. Janesko, R. Gomperts, B. Mennucci, H. P. Hratchian, 
 J. V. Ortiz, A. F. Izmaylov, J. L. Sonnenberg, D. Williams-Young, 
 F. Ding, F. Lipparini, F. Egidi, J. Goings, B. Peng, A. Petrone, 
 T. Henderson, D. Ranasinghe, V. G. Zakrzewski, J. Gao, N. Rega, 
 G. Zheng, W. Liang, M. Hada, M. Ehara, K. Toyota, R. Fukuda, 
 J. Hasegawa, M. Ishida, T. Nakajima, Y. Honda, O. Kitao, H. Nakai, 
 T. Vreven, K. Throssell, J. A. Montgomery, Jr., J. E. Peralta, 
 F. Ogliaro, M. J. Bearpark, J. J. Heyd, E. N. Brothers, K. N. Kudin, 
 V. N. Staroverov, T. A. Keith, R. Kobayashi, J. Normand, 
 K. Raghavachari, A. P. Rendell, J. C. Burant, S. S. Iyengar, 
 J. Tomasi, M. Cossi, J. M. Millam, M. Klene, C. Adamo, R. Cammi, 
 J. W. Ochterski, R. L. Martin, K. Morokuma, O. Farkas, 
 J. B. Foresman, and D. J. Fox, Gaussian, Inc., Wallingford CT, 2019.
 
 ******************************************
 Gaussian 16:  ES64L-G16RevC.01  3-Jul-2019
                20-Mar-2025 
 ******************************************
 %chk=CF2O_1000K_step0045.chk
 %mem=8GB
 %nprocshared=4
 Will use up to    4 processors via shared memory.
 -----------------------------------------
 # B3LYP/6-31G(d) pop=full density=current
 -----------------------------------------
 1/30=1,38=1,172=1/1;
 2/12=2,17=6,18=5,40=1/2;
 3/5=1,6=6,7=1,11=2,25=1,30=1,74=-5/1,2,3;
 4//1;
 5/5=2,38=5/2;
 6/7=3,22=-1,28=1/1;
 99/5=1,9=1/99;
 -----------------
 CF2O Time step 45
 -----------------
 Symbolic Z-matrix:
 Charge =  0 Multiplicity = 1
 F                     1.2271   -0.58266   0.05536 
 C                     0.11032   0.08129  -0.09418 
 O                    -0.00001   1.34851  -0.07213 
 F                    -1.29678  -0.60401   0.06486 
 
                          Input orientation:                          
 ---------------------------------------------------------------------
 Center     Atomic      Atomic             Coordinates (Angstroms)
 Number     Number       Type             X           Y           Z
 ---------------------------------------------------------------------
      1          9           0        1.227101   -0.582656    0.055359
      2          6           0        0.110316    0.081294   -0.094184
      3          8           0       -0.000006    1.348505   -0.072132
      4          9           0       -1.296775   -0.604010    0.064859
 ---------------------------------------------------------------------
                    Distance matrix (angstroms):
                    1          2          3          4
     1  F    0.000000
     2  C    1.307823   0.000000
     3  O    2.291600   1.272195   0.000000
     4  F    2.523984   1.573163   2.347912   0.000000
 Stoichiometry    CF2O
 Framework group  C1[X(CF2O)]
 Deg. of freedom     6
 Full point group                 C1      NOp   1
 Largest Abelian subgroup         C1      NOp   1
 Largest concise Abelian subgroup C1      NOp   1
                         Standard orientation:                         
 ---------------------------------------------------------------------
 Center     Atomic      Atomic             Coordinates (Angstroms)
 Number     Number       Type             X           Y           Z
 ---------------------------------------------------------------------
      1          9           0       -1.168798   -0.708060   -0.021919
      2          6           0       -0.115297    0.059180    0.087082
      3          8           0       -0.114503    1.326611   -0.022905
      4          9           0        1.347443   -0.510603   -0.015775
 ---------------------------------------------------------------------
 Rotational constants (GHZ):          11.8192827           8.2943999           4.8846550
 Standard basis: 6-31G(d) (6D, 7F)
 There are    60 symmetry adapted cartesian basis functions of A   symmetry.
 There are    60 symmetry adapted basis functions of A   symmetry.
    60 basis functions,   112 primitive gaussians,    60 cartesian basis functions
    16 alpha electrons       16 beta electrons
       nuclear repulsion energy       109.8162087058 Hartrees.
 NAtoms=    4 NActive=    4 NUniq=    4 SFac= 1.00D+00 NAtFMM=   60 NAOKFM=F Big=F
 Integral buffers will be    131072 words long.
 Raffenetti 2 integral format.
 Two-electron integral symmetry is turned on.
 One-electron integrals computed using PRISM.
 NBasis=    60 RedAO= T EigKep=  4.55D-03  NBF=    60
 NBsUse=    60 1.00D-06 EigRej= -1.00D+00 NBFU=    60
 ExpMin= 1.69D-01 ExpMax= 7.00D+03 ExpMxC= 1.05D+03 IAcc=3 IRadAn=         5 AccDes= 0.00D+00
 Harris functional with IExCor=  402 and IRadAn=       5 diagonalized for initial guess.
 HarFok:  IExCor=  402 AccDes= 0.00D+00 IRadAn=         5 IDoV= 1 UseB2=F ITyADJ=14
 ICtDFT=  3500011 ScaDFX=  1.000000  1.000000  1.000000  1.000000
 FoFCou: FMM=F IPFlag=           0 FMFlag=      100000 FMFlg1=           0
         NFxFlg=           0 DoJE=T BraDBF=F KetDBF=T FulRan=T
         wScrn=  0.000000 ICntrl=       500 IOpCl=  0 I1Cent=   200000004 NGrid=           0
         NMat0=    1 NMatS0=      1 NMatT0=    0 NMatD0=    1 NMtDS0=    0 NMtDT0=    0
 Petite list used in FoFCou.
 Keep R1 ints in memory in canonical form, NReq=5215649.
 Requested convergence on RMS density matrix=1.00D-08 within 128 cycles.
 Requested convergence on MAX density matrix=1.00D-06.
 Requested convergence on             energy=1.00D-06.
 No special actions if energy rises.
 Integral accuracy reduced to 1.0D-05 until final iterations.
 Initial convergence to 1.0D-05 achieved.  Increase integral accuracy.
 SCF Done:  E(RB3LYP) =  -312.947917076     A.U. after   16 cycles
            NFock= 16  Conv=0.18D-08     -V/T= 2.0095

 **********************************************************************

            Population analysis using the SCF Density.

 **********************************************************************

 Orbital symmetries:
       Occupied  (A) (A) (A) (A) (A) (A) (A) (A) (A) (A) (A) (A)
                 (A) (A) (A) (A)
       Virtual   (A) (A) (A) (A) (A) (A) (A) (A) (A) (A) (A) (A)
                 (A) (A) (A) (A) (A) (A) (A) (A) (A) (A) (A) (A)
                 (A) (A) (A) (A) (A) (A) (A) (A) (A) (A) (A) (A)
                 (A) (A) (A) (A) (A) (A) (A) (A)
 The electronic state is 1-A.
 Alpha  occ. eigenvalues --  -24.82864 -24.73203 -19.21813 -10.47664  -1.34372
 Alpha  occ. eigenvalues --   -1.18488  -1.06747  -0.70389  -0.58801  -0.56922
 Alpha  occ. eigenvalues --   -0.54515  -0.46399  -0.44159  -0.42469  -0.38279
 Alpha  occ. eigenvalues --   -0.34275
 Alpha virt. eigenvalues --   -0.09388  -0.02609   0.17438   0.28186   0.46624
 Alpha virt. eigenvalues --    0.47498   0.50267   0.54838   0.83315   0.92774
 Alpha virt. eigenvalues --    0.93322   1.03947   1.07597   1.11790   1.21712
 Alpha virt. eigenvalues --    1.25454   1.25969   1.32846   1.35525   1.39154
 Alpha virt. eigenvalues --    1.51401   1.60042   1.71946   1.74690   1.76183
 Alpha virt. eigenvalues --    1.77393   1.80978   1.83293   1.83551   1.88438
 Alpha virt. eigenvalues --    1.94618   1.95365   2.10103   2.32017   2.52210
 Alpha virt. eigenvalues --    2.54683   2.64651   2.80362   2.94684   3.00981
 Alpha virt. eigenvalues --    3.68127   3.97858   4.16604   4.55048
     Molecular Orbital Coefficients:
                           1         2         3         4         5
                           O         O         O         O         O
     Eigenvalues --   -24.82864 -24.73203 -19.21813 -10.47664  -1.34372
   1 1   F  1S          0.99297   0.00006   0.00002   0.00005  -0.21691
   2        2S          0.01948   0.00026   0.00009   0.00082   0.49411
   3        2PX         0.00070   0.00002   0.00003   0.00009   0.09167
   4        2PY         0.00046   0.00004  -0.00003   0.00007   0.06462
   5        2PZ         0.00008   0.00000   0.00001   0.00002   0.00994
   6        3S          0.01573  -0.00083  -0.00025  -0.00291   0.43269
   7        3PX        -0.00032  -0.00010  -0.00007  -0.00186   0.04309
   8        3PY        -0.00022  -0.00028   0.00019  -0.00138   0.02978
   9        3PZ        -0.00003  -0.00003  -0.00004  -0.00024   0.00465
  10        4XX        -0.00840   0.00017   0.00013  -0.00029   0.02286
  11        4YY        -0.00824   0.00009  -0.00003   0.00027   0.01468
  12        4ZZ        -0.00808   0.00024   0.00008   0.00072   0.00978
  13        4XY        -0.00027  -0.00009   0.00000  -0.00076   0.01109
  14        4XZ        -0.00004  -0.00001   0.00001  -0.00014   0.00179
  15        4YZ        -0.00003  -0.00003   0.00001  -0.00009   0.00127
  16 2   C  1S          0.00001   0.00003   0.00003   0.99308  -0.07424
  17        2S          0.00046  -0.00025   0.00064   0.04555   0.14415
  18        2PX        -0.00059   0.00016   0.00004  -0.00112  -0.09663
  19        2PY        -0.00037  -0.00008   0.00015  -0.00142  -0.06792
  20        2PZ        -0.00007  -0.00003  -0.00001  -0.00014  -0.01067
  21        3S         -0.00056  -0.00029  -0.00270  -0.00443   0.02626
  22        3PX         0.00078  -0.00068  -0.00003  -0.00102   0.00837
  23        3PY         0.00064   0.00035  -0.00199  -0.00017   0.00021
  24        3PZ         0.00004   0.00001   0.00018  -0.00003   0.00252
  25        4XX         0.00025   0.00071   0.00001  -0.00804   0.00767
  26        4YY         0.00016   0.00024  -0.00053  -0.00810  -0.00184
  27        4ZZ        -0.00005   0.00013   0.00003  -0.00924  -0.01530
  28        4XY         0.00019  -0.00019  -0.00003   0.00072   0.02225
  29        4XZ         0.00002  -0.00003  -0.00000   0.00009   0.00276
  30        4YZ         0.00001   0.00001   0.00006   0.00004   0.00209
  31 3   O  1S          0.00002   0.00003   0.99286  -0.00017  -0.01587
  32        2S          0.00016   0.00020   0.02579  -0.00014   0.03507
  33        2PX         0.00001   0.00001  -0.00004  -0.00005  -0.00558
  34        2PY        -0.00001  -0.00003  -0.00107  -0.00001  -0.02143
  35        2PZ         0.00000   0.00000   0.00011  -0.00001   0.00088
  36        3S         -0.00061  -0.00068   0.01189   0.00052   0.02984
  37        3PX        -0.00012   0.00009   0.00003   0.00025  -0.00606
  38        3PY         0.00024   0.00029  -0.00105   0.00055  -0.01279
  39        3PZ        -0.00003  -0.00003   0.00008  -0.00006  -0.00029
  40        4XX         0.00006   0.00006  -0.00784  -0.00012  -0.00121
  41        4YY        -0.00004   0.00001  -0.00754  -0.00015   0.00585
  42        4ZZ         0.00011   0.00017  -0.00786  -0.00006  -0.00045
  43        4XY        -0.00003  -0.00001  -0.00001   0.00003   0.00307
  44        4XZ        -0.00001   0.00002   0.00000  -0.00001  -0.00037
  45        4YZ         0.00001   0.00001  -0.00003   0.00003  -0.00010
  46 4   F  1S          0.00002   0.99304   0.00001  -0.00009  -0.01632
  47        2S          0.00019   0.01954   0.00008  -0.00027   0.03543
  48        2PX        -0.00003  -0.00052  -0.00002  -0.00009  -0.01029
  49        2PY         0.00002   0.00013  -0.00001   0.00001   0.00187
  50        2PZ         0.00000   0.00005   0.00000   0.00001   0.00044
  51        3S         -0.00060   0.01506  -0.00013   0.00154   0.03150
  52        3PX         0.00009   0.00005   0.00008   0.00040  -0.01112
  53        3PY        -0.00013   0.00000   0.00012  -0.00003   0.00024
  54        3PZ        -0.00002  -0.00000  -0.00002  -0.00002  -0.00020
  55        4XX         0.00011  -0.00813   0.00002  -0.00082   0.00656
  56        4YY         0.00014  -0.00797  -0.00000  -0.00021  -0.00036
  57        4ZZ         0.00017  -0.00795   0.00009  -0.00012  -0.00044
  58        4XY         0.00002   0.00009   0.00002   0.00026  -0.00157
  59        4XZ         0.00000   0.00002   0.00001   0.00006  -0.00030
  60        4YZ        -0.00001  -0.00001   0.00001  -0.00002   0.00005
                           6         7         8         9        10
                           O         O         O         O         O
     Eigenvalues --    -1.18488  -1.06747  -0.70389  -0.58801  -0.56922
   1 1   F  1S          0.03158   0.03388   0.08431   0.01121  -0.00043
   2        2S         -0.07241  -0.07754  -0.17632  -0.01708   0.00006
   3        2PX         0.00077   0.00140   0.40589  -0.06745  -0.04264
   4        2PY        -0.00421   0.02503   0.25375   0.39709  -0.05133
   5        2PZ        -0.00125  -0.00128   0.04460   0.03971   0.56399
   6        3S         -0.07094  -0.08007  -0.30233  -0.05092   0.00161
   7        3PX         0.00501   0.00512   0.22781  -0.05451  -0.02632
   8        3PY         0.00002   0.02114   0.13930   0.24194  -0.03100
   9        3PZ        -0.00099  -0.00091   0.02493   0.02513   0.36215
  10        4XX         0.00123  -0.00074   0.02187  -0.01139  -0.00282
  11        4YY        -0.00161   0.00315   0.00634   0.01825  -0.00223
  12        4ZZ        -0.00200  -0.00169  -0.00064   0.00192   0.00422
  13        4XY         0.00101   0.00496   0.01533   0.00860  -0.00249
  14        4XZ        -0.00005  -0.00017   0.00305   0.00077   0.02330
  15        4YZ        -0.00005   0.00039   0.00181   0.00268   0.01570
  16 2   C  1S         -0.04341  -0.08717  -0.11930   0.04844  -0.00691
  17        2S          0.09042   0.19017   0.29008  -0.11581   0.01685
  18        2PX         0.08040  -0.00240  -0.12132  -0.31218   0.00588
  19        2PY         0.01160   0.21358  -0.18185   0.07386  -0.00504
  20        2PZ        -0.00482  -0.01357  -0.00579   0.00406   0.26980
  21        3S          0.02940   0.03290   0.16474  -0.10041   0.00818
  22        3PX         0.00089  -0.00042   0.00899  -0.07494  -0.00797
  23        3PY        -0.00872  -0.01188  -0.01664   0.07092  -0.01445
  24        3PZ         0.00116   0.00303   0.00479   0.00105   0.13177
  25        4XX         0.00078  -0.02440   0.00381   0.01316   0.00055
  26        4YY        -0.00144   0.02247  -0.01136  -0.00613   0.00153
  27        4ZZ        -0.00664  -0.01337  -0.01352   0.00054  -0.00413
  28        4XY        -0.01114  -0.00385   0.01561   0.00740   0.00128
  29        4XZ        -0.00151  -0.00022   0.00164   0.00264  -0.01818
  30        4YZ        -0.00056  -0.00475   0.00247  -0.00102  -0.00905
  31 3   O  1S         -0.03215  -0.19499   0.05556  -0.01245  -0.00345
  32        2S          0.06983   0.43473  -0.12412   0.03367   0.00359
  33        2PX         0.00814  -0.00333  -0.02173  -0.13136   0.00559
  34        2PY        -0.03234  -0.15070  -0.05368   0.03508   0.01950
  35        2PZ         0.00216   0.01324   0.00120  -0.00013   0.12372
  36        3S          0.06518   0.40252  -0.16438   0.00863   0.03086
  37        3PX         0.00570  -0.00311  -0.01677  -0.07404   0.00675
  38        3PY        -0.01399  -0.05702  -0.02939   0.02821   0.00208
  39        3PZ         0.00064   0.00468  -0.00041  -0.00267   0.05760
  40        4XX        -0.00164  -0.00929   0.00101   0.00316  -0.00156
  41        4YY         0.00390   0.01078   0.01093  -0.00189  -0.00325
  42        4ZZ        -0.00149  -0.00517   0.00128   0.00121   0.00002
  43        4XY        -0.00235   0.00046   0.00433   0.01269  -0.00080
  44        4XZ         0.00014  -0.00003  -0.00050  -0.00105  -0.00103
  45        4YZ        -0.00047  -0.00201  -0.00015   0.00002  -0.01089
  46 4   F  1S         -0.22393   0.05520   0.02964  -0.05187   0.00032
  47        2S          0.49880  -0.12302  -0.05982   0.09746  -0.00383
  48        2PX        -0.05522  -0.00343  -0.10136   0.31227   0.00059
  49        2PY         0.01924   0.01231   0.01073  -0.12110   0.00032
  50        2PZ         0.00406  -0.00047   0.00631  -0.02259   0.09154
  51        3S          0.49102  -0.13241  -0.10840   0.21252   0.00668
  52        3PX        -0.03924  -0.00183  -0.06387   0.18747  -0.00156
  53        3PY         0.01312   0.00962   0.00172  -0.07465   0.00384
  54        3PZ         0.00285  -0.00072   0.00298  -0.01337   0.05401
  55        4XX         0.02269  -0.00021   0.01443  -0.02323  -0.00158
  56        4YY         0.00622  -0.00008   0.00049  -0.00826  -0.00105
  57        4ZZ         0.00545  -0.00119   0.00141  -0.00528  -0.00104
  58        4XY        -0.00691  -0.00220  -0.00181   0.00709  -0.00056
  59        4XZ        -0.00165   0.00010  -0.00076   0.00156  -0.00491
  60        4YZ         0.00057   0.00010   0.00002  -0.00068   0.00096
                          11        12        13        14        15
                           O         O         O         O         O
     Eigenvalues --    -0.54515  -0.46399  -0.44159  -0.42469  -0.38279
   1 1   F  1S          0.00607  -0.00021  -0.00075  -0.00874  -0.00040
   2        2S         -0.00522   0.00567  -0.00348   0.00004   0.00163
   3        2PX         0.34816  -0.20930   0.01209   0.10178   0.00942
   4        2PY        -0.22951   0.33232   0.01448   0.05729   0.02330
   5        2PZ         0.01410   0.01313  -0.27429  -0.00675  -0.17848
   6        3S         -0.03726  -0.01222   0.01613   0.11269   0.00129
   7        3PX         0.21161  -0.14460   0.01053   0.08389   0.00921
   8        3PY        -0.15238   0.21404   0.01513   0.04187   0.01103
   9        3PZ         0.00805   0.00849  -0.20239  -0.00136  -0.12673
  10        4XX         0.01689  -0.00582  -0.00171  -0.00744   0.00074
  11        4YY        -0.00964   0.00860  -0.00104  -0.01174  -0.00016
  12        4ZZ         0.00158   0.00210  -0.00370  -0.00833   0.00003
  13        4XY        -0.00469   0.00144   0.00080   0.00201  -0.00022
  14        4XZ         0.00133  -0.00051  -0.00577   0.00022  -0.00187
  15        4YZ        -0.00119   0.00079  -0.00424  -0.00037   0.00146
  16 2   C  1S          0.06502   0.02675  -0.00472   0.01349  -0.00430
  17        2S         -0.16906  -0.07890   0.00983  -0.03272   0.00630
  18        2PX        -0.09634   0.09651  -0.00152   0.01439  -0.00043
  19        2PY        -0.21523  -0.24136  -0.00585  -0.04061  -0.00826
  20        2PZ        -0.00885  -0.00585   0.18884   0.00544   0.22694
  21        3S         -0.14805   0.00864   0.01229  -0.01823   0.04254
  22        3PX         0.00637  -0.00152   0.01358   0.07296  -0.00345
  23        3PY        -0.08561   0.00242  -0.00558   0.13084   0.02693
  24        3PZ        -0.00559  -0.00669   0.11863   0.00594   0.07156
  25        4XX        -0.00458   0.03326  -0.00112   0.01420  -0.00005
  26        4YY         0.01852  -0.01949   0.00057  -0.00877   0.00124
  27        4ZZ         0.00329   0.00278  -0.00168  -0.00003  -0.00181
  28        4XY         0.01623  -0.00813  -0.00390   0.02494   0.00082
  29        4XZ         0.00073  -0.00022   0.02034   0.00147  -0.00567
  30        4YZ         0.00208  -0.00018   0.01224  -0.00024   0.03382
  31 3   O  1S         -0.09498  -0.05187  -0.00245  -0.00427  -0.00019
  32        2S          0.19989   0.11222   0.00320   0.02009   0.00385
  33        2PX        -0.02678   0.04165  -0.02150   0.15194   0.00980
  34        2PY         0.31938   0.36708   0.03672   0.09754   0.07643
  35        2PZ        -0.03625  -0.05599   0.21767  -0.00613   0.47141
  36        3S          0.40456   0.19555   0.01912  -0.05837  -0.02178
  37        3PX        -0.01921   0.02559  -0.02155   0.09814   0.00851
  38        3PY         0.13598   0.20274   0.01730   0.07976   0.05771
  39        3PZ        -0.01457  -0.03453   0.13022  -0.01091   0.32089
  40        4XX        -0.00639   0.00287  -0.00097   0.00759   0.00193
  41        4YY        -0.02688  -0.02024  -0.00319  -0.00244  -0.00486
  42        4ZZ        -0.00277   0.00157   0.00152   0.00374   0.00621
  43        4XY         0.00397  -0.00523   0.00214  -0.00761  -0.00089
  44        4XZ        -0.00050   0.00062   0.00160   0.00065  -0.00165
  45        4YZ         0.00318   0.00405  -0.01423   0.00097  -0.02778
  46 4   F  1S         -0.01677   0.01518   0.00038  -0.00109  -0.00034
  47        2S          0.03510  -0.02985   0.00062   0.00819   0.00040
  48        2PX         0.12209  -0.32583   0.01969   0.24982  -0.02209
  49        2PY        -0.13880   0.05526  -0.06038   0.57254   0.02805
  50        2PZ        -0.01829   0.02354   0.52115   0.05366  -0.38424
  51        3S          0.05503  -0.04904  -0.00641  -0.01095   0.00262
  52        3PX         0.08224  -0.22299   0.01418   0.17373  -0.01696
  53        3PY        -0.08996   0.03726  -0.04325   0.38267   0.01655
  54        3PZ        -0.01325   0.01749   0.35952   0.03654  -0.27201
  55        4XX        -0.00672   0.01426  -0.00019  -0.00715   0.00098
  56        4YY        -0.00189  -0.00121  -0.00057   0.00947  -0.00030
  57        4ZZ        -0.00043  -0.00030   0.00264   0.00348  -0.00114
  58        4XY         0.00805  -0.00263   0.00209  -0.01024   0.00003
  59        4XZ         0.00130  -0.00160  -0.01595  -0.00086   0.00678
  60        4YZ        -0.00077   0.00001   0.00539   0.00137   0.00007
                          16        17        18        19        20
                           O         V         V         V         V
     Eigenvalues --    -0.34275  -0.09388  -0.02609   0.17438   0.28186
   1 1   F  1S         -0.00927   0.02519   0.03654   0.07457  -0.04004
   2        2S          0.01761  -0.05357  -0.08294  -0.15875   0.08451
   3        2PX         0.02323  -0.14377  -0.23983  -0.15024   0.19127
   4        2PY         0.14161  -0.03779  -0.03453  -0.27710  -0.07659
   5        2PZ         0.00663  -0.20169   0.11505  -0.01638   0.04767
   6        3S          0.07215  -0.18741  -0.27257  -0.70929   0.47895
   7        3PX         0.02314  -0.13989  -0.23268  -0.27429   0.27338
   8        3PY         0.10927  -0.05092  -0.06301  -0.37714  -0.06049
   9        3PZ         0.00658  -0.16758   0.09273  -0.02352   0.05163
  10        4XX        -0.00422   0.00465   0.01310  -0.00982  -0.01901
  11        4YY        -0.00089  -0.00129  -0.00675   0.02063  -0.00284
  12        4ZZ        -0.00159   0.00838   0.00453   0.01516   0.00731
  13        4XY         0.00383  -0.00253  -0.00216   0.00503   0.00087
  14        4XZ        -0.00035   0.01121  -0.00964  -0.00379  -0.00743
  15        4YZ         0.00045   0.00534  -0.00715   0.00234   0.00032
  16 2   C  1S         -0.00271  -0.08733  -0.11667  -0.06256  -0.04133
  17        2S          0.01200   0.17794   0.25670   0.00915  -0.00623
  18        2PX         0.07429   0.09736   0.24978  -0.67977   0.23754
  19        2PY         0.01147  -0.15168  -0.28033   0.05726   0.40042
  20        2PZ        -0.00402   0.49774  -0.37087  -0.07192  -0.01904
  21        3S         -0.04164   0.59189   0.79505   1.13582   1.28888
  22        3PX         0.09523   0.01084   0.08460  -0.79949   0.32652
  23        3PY        -0.01449  -0.05947  -0.13654   0.21368   1.82615
  24        3PZ         0.00184   0.32949  -0.28993  -0.11468  -0.10948
  25        4XX        -0.00692  -0.02222  -0.03339   0.00149   0.01901
  26        4YY         0.00245  -0.01590  -0.01108  -0.02494  -0.03022
  27        4ZZ        -0.00038   0.01491   0.01572   0.01658   0.01713
  28        4XY         0.03925  -0.00521  -0.00777  -0.01582   0.01567
  29        4XZ        -0.00075   0.00040   0.00080  -0.01012   0.00316
  30        4YZ         0.00026  -0.02023   0.01090   0.00351   0.00921
  31 3   O  1S         -0.00199   0.01489   0.02052   0.04394   0.10542
  32        2S          0.00681  -0.03190  -0.04337  -0.08937  -0.16262
  33        2PX         0.59980  -0.03620  -0.09275   0.26163  -0.08146
  34        2PY        -0.03138   0.07647   0.13962   0.15556   0.23917
  35        2PZ         0.00528  -0.35650   0.21267   0.01588  -0.03965
  36        3S          0.01643  -0.12637  -0.18105  -0.55965  -1.79017
  37        3PX         0.39051  -0.02968  -0.08575   0.32238  -0.11668
  38        3PY        -0.02531   0.09306   0.17079   0.35047   0.89164
  39        3PZ         0.00413  -0.32346   0.20236   0.00601  -0.09138
  40        4XX        -0.00288   0.00212   0.00206   0.00915   0.03889
  41        4YY         0.00346  -0.00289  -0.00146  -0.00633  -0.00053
  42        4ZZ         0.00110   0.00734   0.00864   0.01522   0.04382
  43        4XY        -0.02514  -0.00138  -0.00475   0.02296  -0.01165
  44        4XZ         0.00268   0.00088   0.00026  -0.00494   0.00240
  45        4YZ        -0.00029  -0.00169   0.00727   0.00465   0.00276
  46 4   F  1S          0.00719   0.02452   0.04487  -0.02682   0.00958
  47        2S         -0.01672  -0.05695  -0.10829   0.05482  -0.00689
  48        2PX         0.12215   0.21022   0.35067  -0.12803  -0.03048
  49        2PY        -0.26476  -0.04411  -0.07316   0.08071  -0.19251
  50        2PZ        -0.00361  -0.15331   0.06255   0.04629   0.00810
  51        3S         -0.04685  -0.14007  -0.25886   0.21439  -0.08620
  52        3PX         0.10214   0.19228   0.32471  -0.12470  -0.00418
  53        3PY        -0.18639  -0.04695  -0.08381   0.07113  -0.21545
  54        3PZ        -0.00508  -0.12024   0.04690   0.03398   0.00841
  55        4XX        -0.00622  -0.00084   0.00556  -0.01557  -0.00090
  56        4YY         0.00200  -0.00146  -0.00525  -0.00652   0.00800
  57        4ZZ         0.00034   0.00353  -0.00039   0.00356   0.01370
  58        4XY         0.00552   0.00157   0.00026   0.01373  -0.01394
  59        4XZ         0.00067  -0.00884   0.00679   0.00636   0.00198
  60        4YZ        -0.00060   0.00180  -0.00198  -0.00313   0.00379
                          21        22        23        24        25
                           V         V         V         V         V
     Eigenvalues --     0.46624   0.47498   0.50267   0.54838   0.83315
   1 1   F  1S          0.02233  -0.01093  -0.01153  -0.00223   0.00368
   2        2S         -0.00752   0.00438   0.00929  -0.02039   0.06253
   3        2PX         0.25867  -0.08188  -0.05840  -0.01153  -0.07184
   4        2PY         0.17999  -0.05272   0.11921   0.01577   0.09674
   5        2PZ        -0.01420  -0.10677   0.03859   0.02348  -0.01997
   6        3S         -0.81202   0.33329   0.18009   0.12717  -0.13437
   7        3PX        -0.19175   0.08368  -0.03599  -0.03207   0.00254
   8        3PY        -0.16437   0.08679   0.17080  -0.07228  -0.07227
   9        3PZ        -0.06236  -0.10743   0.02031   0.00768   0.00699
  10        4XX        -0.08271   0.02921  -0.03969   0.01528   0.04596
  11        4YY        -0.02046   0.01249   0.02996  -0.04169   0.00335
  12        4ZZ         0.05698  -0.02851   0.00136   0.00272   0.01469
  13        4XY        -0.11455   0.04746   0.01283  -0.02007  -0.01542
  14        4XZ        -0.02886  -0.02623  -0.00222   0.00334   0.00656
  15        4YZ        -0.02079  -0.02265  -0.00066  -0.00133  -0.00064
  16 2   C  1S          0.03510  -0.00710  -0.02328   0.04082   0.03475
  17        2S         -0.82900   0.13530  -0.38147  -1.09566   0.42658
  18        2PX         0.51004  -0.19788  -0.47830  -0.23091  -0.01760
  19        2PY         0.38666  -0.07669   0.66601  -0.57642   0.24909
  20        2PZ        -0.27152  -0.89679   0.07204   0.04333  -0.02885
  21        3S          1.23128  -0.31462   0.66953   1.76238  -0.03033
  22        3PX        -1.19794   0.50288   1.39651   0.59062  -0.00393
  23        3PY        -0.71320   0.16252  -0.94043   0.99686  -0.08109
  24        3PZ         0.33224   1.27376  -0.13968  -0.11459   0.00245
  25        4XX         0.03426  -0.02382   0.00076  -0.09463  -0.02425
  26        4YY        -0.01083  -0.02417  -0.10625   0.10010   0.25701
  27        4ZZ        -0.04514   0.01694   0.00693  -0.07222  -0.05087
  28        4XY         0.09058  -0.03369  -0.01151  -0.00001  -0.00440
  29        4XZ         0.01053   0.00608   0.00715   0.00231   0.00196
  30        4YZ         0.00720  -0.00838   0.00784  -0.01589  -0.02893
  31 3   O  1S          0.00330  -0.00165   0.01353  -0.00421   0.00779
  32        2S         -0.06146  -0.00138  -0.10703   0.03542  -0.53480
  33        2PX         0.07105  -0.03620  -0.14983  -0.05607   0.06018
  34        2PY        -0.01219   0.01581   0.16651  -0.42418  -0.66378
  35        2PZ        -0.01667  -0.11097   0.01546   0.03910   0.04282
  36        3S          0.13566   0.06098   0.31860  -0.83063   0.73417
  37        3PX         0.18648  -0.07768  -0.22132  -0.09269  -0.05996
  38        3PY         0.09367  -0.06278   0.06577   0.26758   1.16673
  39        3PZ        -0.04266  -0.15198   0.01871  -0.01643  -0.08389
  40        4XX        -0.01200  -0.00495  -0.04310   0.04128  -0.20199
  41        4YY        -0.02795   0.02197   0.04826  -0.17307  -0.21280
  42        4ZZ        -0.01207  -0.01274  -0.02795   0.06241  -0.19523
  43        4XY        -0.03367   0.01292   0.02660   0.01306   0.00284
  44        4XZ         0.00042   0.00069   0.00207   0.00066  -0.00038
  45        4YZ         0.01480   0.04581  -0.01395   0.02380   0.00081
  46 4   F  1S         -0.00930   0.00376   0.03963   0.01421   0.00278
  47        2S         -0.06710   0.00672  -0.13943  -0.12039   0.13649
  48        2PX         0.03648  -0.02757  -0.09207  -0.09138   0.04244
  49        2PY         0.05888  -0.01759   0.06599  -0.02261   0.10556
  50        2PZ        -0.02161  -0.12335   0.00529   0.01011  -0.01266
  51        3S          0.28139  -0.09419  -0.58715  -0.15383  -0.22847
  52        3PX         0.00519   0.00706   0.37398   0.17665  -0.04291
  53        3PY         0.10897  -0.03507  -0.11791  -0.17164  -0.05147
  54        3PZ        -0.02114  -0.10184  -0.02094  -0.00683   0.00870
  55        4XX        -0.05408   0.00461  -0.12731  -0.09460   0.08913
  56        4YY        -0.02257   0.00380  -0.00421  -0.04927   0.03472
  57        4ZZ        -0.03513   0.00658   0.01567  -0.00975   0.04813
  58        4XY        -0.00870   0.00395   0.04682   0.06227   0.02569
  59        4XZ         0.00477   0.00989   0.01017   0.00580  -0.00692
  60        4YZ        -0.00222  -0.00589  -0.00203  -0.00275  -0.00120
                          26        27        28        29        30
                           V         V         V         V         V
     Eigenvalues --     0.92774   0.93322   1.03947   1.07597   1.11790
   1 1   F  1S          0.00136  -0.01385  -0.03975   0.00701   0.01293
   2        2S          0.09207  -0.56142  -0.81583   0.13562   0.24697
   3        2PX        -0.06970   0.17081   0.46453   0.05495   0.00728
   4        2PY        -0.00672   0.22593   0.15122  -0.14554  -0.43587
   5        2PZ         0.19439  -0.02030   0.13709  -0.53432   0.29858
   6        3S         -0.12367   0.80801   1.70197  -0.31356  -0.62796
   7        3PX         0.08848  -0.27691  -0.67558  -0.01153   0.10726
   8        3PY         0.03331  -0.34848  -0.27398   0.16388   0.53034
   9        3PZ        -0.12792   0.01209  -0.16005   0.57549  -0.33049
  10        4XX         0.05015  -0.24540  -0.37331   0.06608   0.11843
  11        4YY         0.04484  -0.29230  -0.35307   0.06016   0.10100
  12        4ZZ         0.02661  -0.21477  -0.43229   0.06192   0.13575
  13        4XY        -0.00549  -0.00997   0.02690  -0.01678  -0.04905
  14        4XZ        -0.02736  -0.00100   0.00317   0.02709  -0.01450
  15        4YZ         0.02076   0.01883  -0.01458   0.06436  -0.02949
  16 2   C  1S         -0.00490   0.01132   0.02323   0.00616   0.00445
  17        2S         -0.04518   0.14631   0.40646   0.14318   0.05846
  18        2PX         0.01501  -0.08769  -0.15083   0.12138   0.22747
  19        2PY         0.01996  -0.05545  -0.14356  -0.00497   0.05220
  20        2PZ         0.06620   0.00153  -0.01579  -0.02396   0.02378
  21        3S          0.08763  -0.11980  -0.49664  -0.33392  -0.08995
  22        3PX         0.15485  -0.51948   0.33003  -0.35946  -0.65962
  23        3PY         0.01726  -0.03174   0.10164  -0.04040  -0.03337
  24        3PZ        -0.40333  -0.11772   0.03050  -0.06707   0.01036
  25        4XX        -0.01555   0.06074   0.19450   0.04498  -0.01408
  26        4YY        -0.01034   0.03124   0.06544   0.01658   0.05143
  27        4ZZ         0.00855  -0.01484  -0.11129  -0.05312  -0.04555
  28        4XY        -0.01069   0.04034   0.13990  -0.05741  -0.19430
  29        4XZ        -0.01163  -0.02538   0.08863  -0.22305   0.12411
  30        4YZ         0.00986   0.00403  -0.00717   0.00278  -0.03056
  31 3   O  1S          0.00257  -0.00100  -0.00206  -0.00309   0.00293
  32        2S          0.03157  -0.01770   0.02362  -0.00673   0.12029
  33        2PX         0.22002  -0.73972   0.24761  -0.06361  -0.34535
  34        2PY        -0.04633  -0.06130  -0.03016  -0.03654  -0.07176
  35        2PZ        -0.88143  -0.25345   0.02040  -0.05697   0.00350
  36        3S         -0.11511   0.07207   0.03838   0.12256  -0.19688
  37        3PX        -0.29822   1.00840  -0.43851   0.17700   0.69867
  38        3PY         0.08121   0.08040   0.04033   0.02480   0.17254
  39        3PZ         1.12886   0.32843  -0.03645   0.09680  -0.00785
  40        4XX         0.00648  -0.00143   0.03245   0.01549   0.03828
  41        4YY         0.01700  -0.00973   0.00270   0.01125   0.05137
  42        4ZZ         0.01615  -0.01919  -0.04547  -0.04762  -0.01265
  43        4XY        -0.00617   0.02576  -0.04503   0.00567   0.14534
  44        4XZ         0.00143  -0.01309   0.02813  -0.07569   0.03264
  45        4YZ         0.02255   0.00905  -0.00565   0.01084  -0.00269
  46 4   F  1S         -0.00097   0.00265  -0.03097  -0.04805  -0.03845
  47        2S         -0.08168   0.24148  -0.70897  -0.89998  -0.67356
  48        2PX         0.00646   0.03441  -0.29082  -0.25212  -0.20663
  49        2PY         0.10373  -0.20743  -0.00433   0.10011   0.21632
  50        2PZ         0.07561   0.08259  -0.16809   0.45180  -0.30846
  51        3S          0.08100  -0.25636   1.31525   1.87752   1.50652
  52        3PX         0.02638  -0.10903   0.30419   0.22607   0.17509
  53        3PY        -0.11221   0.23451  -0.02219  -0.06981  -0.18094
  54        3PZ        -0.02961  -0.05236   0.16108  -0.45389   0.33777
  55        4XX        -0.02956   0.10215  -0.32276  -0.36528  -0.23758
  56        4YY        -0.05291   0.14841  -0.30732  -0.40207  -0.32315
  57        4ZZ        -0.02817   0.06673  -0.30894  -0.43591  -0.33025
  58        4XY         0.01924  -0.03052  -0.02745  -0.02148   0.00193
  59        4XZ         0.01709   0.01439  -0.03378   0.06299  -0.05364
  60        4YZ         0.02376   0.00057   0.01905  -0.03632   0.01859
                          31        32        33        34        35
                           V         V         V         V         V
     Eigenvalues --     1.21712   1.25454   1.25969   1.32846   1.35525
   1 1   F  1S         -0.01484  -0.00814  -0.00717  -0.01965  -0.01387
   2        2S         -0.16460  -0.07076   0.04261  -0.24237  -0.18260
   3        2PX        -0.34292   0.31259   0.23437   0.04701   0.00092
   4        2PY         0.27744  -0.33064   0.03746  -0.30900  -0.09946
   5        2PZ        -0.16553  -0.47669   0.13114   0.31629  -0.14277
   6        3S          0.40185   0.22308   0.08344   0.58805   0.43424
   7        3PX         0.56054  -0.42840  -0.29941  -0.01703   0.02789
   8        3PY        -0.28000   0.49035  -0.06831   0.55274   0.20951
   9        3PZ         0.22865   0.67955  -0.18458  -0.52948   0.32117
  10        4XX        -0.19541   0.01960   0.04365  -0.11924   0.00918
  11        4YY         0.15403  -0.05017   0.04618   0.00995  -0.03983
  12        4ZZ        -0.16221  -0.08176  -0.12011  -0.20434  -0.19588
  13        4XY        -0.00858  -0.01878   0.04617  -0.10109  -0.05715
  14        4XZ         0.00269   0.00061  -0.03950   0.18348  -0.34546
  15        4YZ        -0.02788  -0.06820   0.01612   0.10103  -0.16713
  16 2   C  1S         -0.00968  -0.00375   0.00381   0.00124  -0.00056
  17        2S          0.04275  -0.09177   0.03572   0.00445  -0.00679
  18        2PX         0.12267  -0.13236  -0.07068  -0.07236  -0.01111
  19        2PY        -0.13987   0.04367  -0.10319   0.02790   0.04127
  20        2PZ         0.06749   0.12868  -0.05752  -0.06848   0.01263
  21        3S         -1.85903  -0.20777  -0.51488  -1.42743  -0.40861
  22        3PX        -0.39271   0.40934   0.09328   0.12371   0.08914
  23        3PY        -0.68417  -0.36693  -0.01312  -0.97185  -0.23351
  24        3PZ        -0.10872  -0.53186   0.27809   0.45316  -0.00511
  25        4XX         0.21107  -0.01008   0.07976   0.14769  -0.02864
  26        4YY        -0.17013  -0.00639  -0.02828  -0.01459   0.09329
  27        4ZZ        -0.12486  -0.03456  -0.04423  -0.24546  -0.10793
  28        4XY        -0.13208   0.03149   0.00147  -0.07728  -0.13292
  29        4XZ         0.06007   0.09351   0.00550  -0.10706   0.27709
  30        4YZ        -0.05485  -0.18440   0.17659  -0.12222   0.45610
  31 3   O  1S         -0.06329  -0.01167  -0.01901  -0.04691  -0.00978
  32        2S         -0.99710  -0.15543  -0.39141  -0.57658  -0.10457
  33        2PX        -0.01418   0.02097  -0.09958   0.07308   0.06377
  34        2PY         0.19094   0.01539   0.12762   0.06295   0.00551
  35        2PZ        -0.05024  -0.12784   0.04733   0.05297  -0.07998
  36        3S          2.90048   0.53911   0.92994   2.11116   0.44320
  37        3PX         0.15613  -0.12954   0.12994  -0.11084  -0.05952
  38        3PY        -1.09685  -0.12001  -0.44995  -0.63906  -0.12615
  39        3PZ         0.20386   0.39858  -0.18258  -0.07583  -0.05787
  40        4XX        -0.17130  -0.00271  -0.10012   0.01808   0.02306
  41        4YY        -0.35518  -0.03324  -0.18636  -0.17996  -0.07049
  42        4ZZ        -0.31418  -0.10781  -0.02279  -0.35671  -0.05306
  43        4XY         0.05098  -0.00813   0.05242   0.00414   0.07178
  44        4XZ         0.00831   0.02809  -0.00545  -0.03896   0.07531
  45        4YZ         0.04269   0.15281  -0.11052   0.01855  -0.31208
  46 4   F  1S         -0.02837   0.01654   0.00116  -0.00922  -0.00343
  47        2S         -0.43160   0.14932  -0.05505  -0.30773  -0.11548
  48        2PX        -0.05202   0.37207   0.38799   0.30073   0.05909
  49        2PY         0.01769   0.00834   0.63574  -0.38993  -0.27355
  50        2PZ        -0.27909  -0.36261   0.22019   0.28416   0.07561
  51        3S          1.09875  -0.48468   0.10889   0.57266   0.20097
  52        3PX        -0.02754  -0.38631  -0.47858  -0.37102  -0.06694
  53        3PY         0.06844  -0.00975  -0.77589   0.57249   0.37241
  54        3PZ         0.34369   0.47622  -0.28970  -0.40275  -0.10108
  55        4XX        -0.13412  -0.01402  -0.06247  -0.12640   0.00949
  56        4YY        -0.11310   0.12471   0.06718  -0.05571  -0.09492
  57        4ZZ        -0.30579   0.13118  -0.03430  -0.14100  -0.03962
  58        4XY        -0.05558   0.03150  -0.06507   0.07072   0.11924
  59        4XZ        -0.03014  -0.01060  -0.00079  -0.05990  -0.03401
  60        4YZ        -0.00245  -0.01183   0.01327  -0.01226   0.07649
                          36        37        38        39        40
                           V         V         V         V         V
     Eigenvalues --     1.39154   1.51401   1.60042   1.71946   1.74690
   1 1   F  1S         -0.00039  -0.00358   0.00111   0.01753   0.00176
   2        2S         -0.02505  -0.31752   0.50865   0.33740   0.09561
   3        2PX        -0.00506  -0.10065   0.35771   0.17607  -0.01043
   4        2PY        -0.03957  -0.26992   0.16463  -0.16497   0.05677
   5        2PZ         0.02393   0.03436   0.03123   0.04486   0.01901
   6        3S          0.03977   0.53556  -0.79208  -0.82459  -0.20692
   7        3PX        -0.00264   0.03157  -0.42749  -0.38028   0.03633
   8        3PY         0.07107   0.54312  -0.03605   0.29083  -0.11684
   9        3PZ        -0.07557  -0.06634  -0.04223  -0.08374  -0.03114
  10        4XX         0.05847   0.19240   0.40485  -0.25515  -0.11306
  11        4YY        -0.07073  -0.40384   0.10724  -0.05588  -0.04863
  12        4ZZ        -0.01070  -0.05946  -0.06689   0.64207   0.23403
  13        4XY        -0.05082  -0.14589  -0.03931   0.47525   0.18618
  14        4XZ         0.00536   0.04475   0.13072  -0.21375   0.46203
  15        4YZ         0.24913  -0.11225  -0.03512   0.08929  -0.72661
  16 2   C  1S         -0.00111  -0.02652   0.00424   0.02871   0.00338
  17        2S          0.00050   0.19430  -0.01129   0.01829   0.09356
  18        2PX        -0.04647   0.04231   0.05571  -0.02210   0.04574
  19        2PY         0.02759  -0.00984   0.09602  -0.07173  -0.02202
  20        2PZ        -0.04934  -0.00568   0.00719   0.02156  -0.02614
  21        3S         -0.14564  -1.72137  -0.31987  -1.02421  -0.16621
  22        3PX        -0.04057   0.02941   0.15122  -0.03549  -0.35168
  23        3PY        -0.04431  -1.17774  -0.64575  -1.44543   0.13482
  24        3PZ        -0.03691   0.16132   0.01846   0.08889   0.01937
  25        4XX        -0.02411  -0.19736  -0.19310   0.19591  -0.07481
  26        4YY         0.05984  -0.00293   0.11509  -0.36753   0.02138
  27        4ZZ        -0.06888   0.12181   0.15636   0.25947   0.02298
  28        4XY         0.03614   0.30800  -0.27928   0.02240   0.02418
  29        4XZ        -0.49341   0.03489  -0.06377  -0.01260  -0.01530
  30        4YZ         0.31202   0.03893  -0.04272   0.07537   0.01742
  31 3   O  1S         -0.00163  -0.04844  -0.01092  -0.04112  -0.00024
  32        2S         -0.04224  -0.94548  -0.53670  -0.49480   0.02886
  33        2PX         0.00095  -0.07240   0.06977  -0.00406  -0.00661
  34        2PY         0.01839   0.22719   0.24138  -0.16830   0.00022
  35        2PZ        -0.03857  -0.02908  -0.01494  -0.00150  -0.04431
  36        3S          0.12592   2.85341   1.27818   2.16533  -0.07596
  37        3PX        -0.01700  -0.00250  -0.05658   0.00430   0.08338
  38        3PY        -0.05086  -1.00262  -0.50043  -0.58860   0.01986
  39        3PZ        -0.04930   0.07555   0.05901   0.07835   0.04324
  40        4XX         0.01438  -0.22984  -0.35784  -0.03837   0.07461
  41        4YY        -0.03643  -0.30383  -0.19494  -0.24271  -0.00409
  42        4ZZ        -0.00844  -0.13343   0.23954   0.01093  -0.06944
  43        4XY        -0.06777  -0.25029   0.27323  -0.08437   0.04444
  44        4XZ        -0.17178   0.08749  -0.12020  -0.04476  -0.14534
  45        4YZ        -0.20959  -0.02242   0.11132   0.00632  -0.19841
  46 4   F  1S         -0.00854  -0.02362   0.02257   0.01739  -0.02049
  47        2S         -0.14844   0.23390   0.26873   0.08202  -0.35450
  48        2PX         0.07754  -0.31200  -0.12739  -0.02515   0.08977
  49        2PY        -0.05045   0.05724  -0.10022  -0.10332  -0.02037
  50        2PZ        -0.40279   0.05465   0.00040   0.01396  -0.00201
  51        3S          0.31456  -0.14864  -0.65749  -0.28529   0.82377
  52        3PX        -0.11758   0.27675   0.27733   0.12767  -0.23621
  53        3PY         0.07836   0.06853   0.17241   0.25891   0.07414
  54        3PZ         0.56175  -0.07837  -0.00535  -0.03279   0.01894
  55        4XX        -0.04292  -0.07204   0.41676   0.25464  -0.20559
  56        4YY        -0.03134   0.23959  -0.15414  -0.03080  -0.07226
  57        4ZZ        -0.10753  -0.11558   0.09705  -0.03112  -0.09607
  58        4XY         0.01656  -0.01398   0.23268   0.05888   0.09323
  59        4XZ         0.35896  -0.01507   0.01310  -0.04580   0.20776
  60        4YZ        -0.12493  -0.00666  -0.09694  -0.06073  -0.07676
                          41        42        43        44        45
                           V         V         V         V         V
     Eigenvalues --     1.76183   1.77393   1.80978   1.83293   1.83551
   1 1   F  1S         -0.00313  -0.00703  -0.03285  -0.03763  -0.02426
   2        2S          0.01305   0.04360  -0.83043  -0.46606  -0.38272
   3        2PX        -0.07862  -0.03989  -0.04776  -0.00352  -0.02285
   4        2PY         0.13964   0.12268  -0.18395   0.05578   0.03343
   5        2PZ         0.04424  -0.00984   0.00183  -0.02112   0.00985
   6        3S         -0.00898  -0.02998   1.91326   1.34251   1.02409
   7        3PX         0.22323   0.17072   0.29219   0.22201   0.20223
   8        3PY        -0.23942  -0.20854   0.45963   0.12284   0.10085
   9        3PZ        -0.06234   0.00298   0.01429   0.05174  -0.00279
  10        4XX         0.08323  -0.08203  -0.56821  -0.09148  -0.09069
  11        4YY        -0.17676  -0.07603   0.09839  -0.59513  -0.30884
  12        4ZZ         0.09563   0.14454  -0.21968   0.19215   0.04562
  13        4XY         0.04985   0.10319  -0.20887  -0.07597  -0.09659
  14        4XZ        -0.25798   0.07461   0.04313   0.03941  -0.05437
  15        4YZ         0.08196   0.21180  -0.07530   0.08766   0.00309
  16 2   C  1S         -0.00190   0.00091   0.02423   0.01009   0.00923
  17        2S          0.30405   0.30330   0.21400   0.13293   0.14743
  18        2PX         0.12183   0.14045  -0.01195   0.01247   0.02607
  19        2PY        -0.02482  -0.03282  -0.10988   0.05293   0.00018
  20        2PZ         0.03830  -0.04016  -0.02097  -0.02679  -0.01085
  21        3S         -0.61802  -0.68356  -1.30397  -0.87575  -0.76180
  22        3PX        -0.74723  -0.73846   0.51917   0.49538   0.28369
  23        3PY         0.43294   0.36083  -0.04450   0.07336   0.06490
  24        3PZ         0.04477   0.06611   0.11175   0.06393   0.06702
  25        4XX        -0.24702  -0.23086   0.03048  -0.05704  -0.06784
  26        4YY         0.09183   0.07860  -0.17127   0.01117  -0.01870
  27        4ZZ         0.05928   0.05859   0.17070   0.07796   0.10270
  28        4XY         0.05468   0.04763  -0.07446  -0.14362  -0.08781
  29        4XZ         0.05665   0.01883  -0.02809  -0.01970  -0.03317
  30        4YZ        -0.05909  -0.00672   0.03319  -0.00435  -0.00817
  31 3   O  1S          0.00367   0.00171  -0.02187   0.00075  -0.00361
  32        2S         -0.03569  -0.05879  -0.05254  -0.25453  -0.15678
  33        2PX        -0.01484  -0.02832   0.00355   0.11129   0.05872
  34        2PY         0.09303   0.08008  -0.15379   0.08478   0.02534
  35        2PZ         0.02161   0.01296   0.00883   0.02537  -0.02067
  36        3S         -0.07687   0.03247   0.64298   0.54423   0.41974
  37        3PX         0.17702   0.18994  -0.11633  -0.24246  -0.13284
  38        3PY        -0.05415  -0.08151  -0.15615  -0.25150  -0.17172
  39        3PZ        -0.04512  -0.03860  -0.00361  -0.03620   0.02813
  40        4XX        -0.07187  -0.19089  -0.61980   0.11732   0.08641
  41        4YY         0.05198   0.02204  -0.04440  -0.09076  -0.06567
  42        4ZZ        -0.00601   0.13230   0.58664  -0.09238  -0.07728
  43        4XY         0.01194   0.08861  -0.15999   0.30286   0.18198
  44        4XZ        -0.60867   0.64795  -0.11280  -0.05186   0.15975
  45        4YZ         0.09148   0.02278  -0.01330   0.03546  -0.06748
  46 4   F  1S         -0.06119  -0.05394   0.00011   0.00243  -0.00551
  47        2S         -0.74978  -0.79081  -0.16370  -0.02151  -0.08183
  48        2PX         0.12415   0.15557   0.07415   0.02874   0.02228
  49        2PY        -0.02592  -0.04575  -0.02996   0.00172  -0.00107
  50        2PZ        -0.03289   0.00204   0.01302   0.00359   0.01705
  51        3S          1.91359   1.92283   0.25529  -0.01162   0.18150
  52        3PX        -0.48212  -0.50900  -0.14788  -0.05531  -0.07727
  53        3PY         0.13835   0.16985   0.03375  -0.03259  -0.00557
  54        3PZ         0.05649   0.02146  -0.03057  -0.01460  -0.02876
  55        4XX        -0.64124  -0.48412  -0.14942  -0.12691  -0.23933
  56        4YY        -0.06116  -0.14887  -0.12036  -0.21217  -0.29462
  57        4ZZ        -0.21945  -0.25488   0.16895   0.34177   0.44251
  58        4XY         0.28025   0.41641  -0.06790  -0.22626  -0.28610
  59        4XZ        -0.28562   0.14250   0.02666   0.17177  -0.16357
  60        4YZ        -0.04394   0.01562   0.07874   0.61174  -0.69495
                          46        47        48        49        50
                           V         V         V         V         V
     Eigenvalues --     1.88438   1.94618   1.95365   2.10103   2.32017
   1 1   F  1S         -0.04329  -0.05071  -0.04082  -0.00969  -0.00173
   2        2S         -0.65945  -0.84894  -0.40822   0.09608   0.12304
   3        2PX        -0.00382  -0.00170   0.12439   0.15649  -0.01355
   4        2PY         0.02552   0.04058   0.01498   0.01313   0.08208
   5        2PZ        -0.05812  -0.03644   0.11875  -0.10735   0.08499
   6        3S          1.82903   2.31692   1.34028  -0.01459  -0.24032
   7        3PX         0.23952   0.37416   0.08864  -0.19242   0.06959
   8        3PY         0.12435   0.15877   0.25542   0.11301  -0.21302
   9        3PZ         0.13368   0.10848  -0.20508   0.26021  -0.24171
  10        4XX        -0.27552  -0.53191  -0.23911  -0.12191   0.19775
  11        4YY        -0.55260  -0.16903   0.04208   0.24785  -0.10360
  12        4ZZ         0.18686  -0.04627  -0.23652  -0.10076  -0.06062
  13        4XY        -0.09421  -0.15722  -0.19266  -0.13109  -0.10122
  14        4XZ         0.05378   0.02187  -0.33126   0.36894  -0.20241
  15        4YZ        -0.00006   0.02698  -0.14684   0.18722  -0.43457
  16 2   C  1S          0.00323  -0.00606   0.03539   0.02203   0.04680
  17        2S         -0.20067   0.11778   0.21735   0.09619   0.01840
  18        2PX        -0.16769  -0.06173   0.05780   0.11481  -0.20763
  19        2PY         0.06509   0.02012  -0.11473  -0.09345   0.08047
  20        2PZ        -0.03710  -0.03018   0.13789  -0.16559   0.16140
  21        3S          0.42831  -0.15072  -1.02007  -0.21858  -0.29248
  22        3PX         1.14343   0.93725   0.64877   0.31117  -0.50972
  23        3PY         0.86407   1.22354  -0.08706  -0.39376   0.18032
  24        3PZ        -0.08700  -0.00419   0.39142  -0.34981   0.17284
  25        4XX         0.04316  -0.27059  -0.14154  -0.11088   0.07184
  26        4YY         0.20020   0.25893  -0.24265  -0.32731  -0.05978
  27        4ZZ        -0.18338   0.03586   0.53048   0.59521   0.19419
  28        4XY        -0.27123  -0.22147  -0.16234  -0.02630  -0.02284
  29        4XZ        -0.05393  -0.03581  -0.02103  -0.10277  -0.63309
  30        4YZ        -0.02602  -0.04609  -0.03100   0.10421   0.35060
  31 3   O  1S          0.01664   0.02598  -0.02022  -0.01127  -0.00174
  32        2S          0.26828   0.07999  -0.01314   0.07736   0.12802
  33        2PX         0.19115  -0.02292   0.09702   0.04168  -0.03400
  34        2PY         0.06426   0.17737  -0.16252  -0.21313  -0.08601
  35        2PZ        -0.01619   0.00819   0.09220  -0.05945   0.04585
  36        3S         -1.13215  -0.98074   0.55262   0.29578  -0.17528
  37        3PX        -0.47460  -0.12808  -0.26976  -0.15205   0.19477
  38        3PY         0.30971   0.16270  -0.13777   0.02541   0.09200
  39        3PZ        -0.00788  -0.06623  -0.19195   0.24215  -0.23762
  40        4XX        -0.17650   0.31629   0.19957   0.25866   0.05491
  41        4YY         0.10862   0.00652   0.00558  -0.10222   0.01551
  42        4ZZ         0.17297  -0.23882  -0.25086  -0.10414  -0.03246
  43        4XY         0.18644  -0.34102   0.17730   0.20557  -0.16234
  44        4XZ         0.04447  -0.02242  -0.01550   0.02902   0.24921
  45        4YZ        -0.06277  -0.02063   0.27668  -0.38550   0.49155
  46 4   F  1S          0.04363  -0.00079  -0.00139   0.00435  -0.00161
  47        2S          0.29684   0.23918   0.10542   0.26862  -0.47014
  48        2PX         0.07099   0.00644  -0.03653  -0.11258   0.13018
  49        2PY         0.03828   0.26303   0.01308  -0.00513  -0.04032
  50        2PZ        -0.00586  -0.00065   0.11368  -0.09943  -0.08257
  51        3S         -1.02677  -0.46772  -0.21843  -0.55781   0.93825
  52        3PX         0.06649  -0.02652   0.04864   0.25081  -0.36211
  53        3PY        -0.24768  -0.52611  -0.03221   0.00905   0.12469
  54        3PZ        -0.00356  -0.00432  -0.21314   0.19420   0.15864
  55        4XX         0.34667   0.41527  -0.07942  -0.16707   0.03760
  56        4YY         0.59588  -0.37642   0.34358   0.30350  -0.14302
  57        4ZZ        -0.45754   0.08840  -0.21726   0.03297  -0.08982
  58        4XY        -0.09067   0.46635   0.03648   0.07980  -0.05911
  59        4XZ        -0.20847  -0.08814   0.49650  -0.46292  -0.42609
  60        4YZ        -0.10906  -0.00452  -0.13204   0.14616   0.16642
                          51        52        53        54        55
                           V         V         V         V         V
     Eigenvalues --     2.52210   2.54683   2.64651   2.80362   2.94684
   1 1   F  1S          0.01662  -0.01357  -0.04341   0.01170   0.01984
   2        2S         -0.03266   0.42276   0.66472  -0.05460  -0.85111
   3        2PX        -0.14850   0.07065   0.19470  -0.06094  -0.08171
   4        2PY         0.08257   0.13518   0.10129  -0.05538  -0.08923
   5        2PZ        -0.05358   0.05434   0.00112  -0.00045  -0.00060
   6        3S         -0.14541  -0.76653  -1.06216  -0.01980   1.73434
   7        3PX         0.24993  -0.11624  -0.48042  -0.12899   0.90554
   8        3PY        -0.44382  -0.36280  -0.19535  -0.01789   0.84747
   9        3PZ         0.19033  -0.19805   0.07489  -0.04097   0.07709
  10        4XX         0.38050   0.15433  -0.36085  -0.08464   0.29342
  11        4YY        -0.35748  -0.11855   0.03080  -0.01973   0.38403
  12        4ZZ         0.04170  -0.02369   0.10930   0.08851  -0.34484
  13        4XY        -0.32923  -0.17890  -0.09535  -0.23030   0.83151
  14        4XZ         0.36360  -0.37837   0.24667  -0.04691   0.08441
  15        4YZ         0.21650  -0.15269   0.18142  -0.02499   0.11344
  16 2   C  1S          0.08840   0.05572   0.02159   0.01992   0.12039
  17        2S          0.03151  -0.01496  -0.12202  -0.80733  -1.24571
  18        2PX        -0.30696  -0.35601  -0.34532  -0.19344   0.54043
  19        2PY         0.32929  -0.02962  -0.44220  -1.04702   0.57622
  20        2PZ        -0.06351  -0.07358   0.00683   0.07831   0.08514
  21        3S         -0.07508  -0.34296  -0.70794  -1.41804  -1.61006
  22        3PX        -0.74021  -0.85717  -0.84317   0.02849   0.16841
  23        3PY         0.78491   0.01637  -0.84482  -0.62650   0.07449
  24        3PZ        -0.04052  -0.07801   0.02453   0.09725   0.11609
  25        4XX         0.25959  -0.04703  -0.32533   0.29110  -0.63014
  26        4YY        -0.22726   0.03033   0.25279  -0.60071   0.64349
  27        4ZZ         0.44157   0.33737   0.21029   0.39790   0.82615
  28        4XY         0.17775  -0.08842  -0.35646   0.58924  -0.18737
  29        4XZ         0.52532  -0.15171   0.32980  -0.00841  -0.05098
  30        4YZ         0.20775  -0.80717   0.40288   0.07620  -0.05557
  31 3   O  1S          0.00391  -0.00159  -0.01132  -0.03467  -0.01685
  32        2S          0.52215  -0.04570  -0.52284  -0.66878  -0.27667
  33        2PX        -0.02927  -0.03950  -0.02331  -0.01069   0.01432
  34        2PY        -0.19867   0.03204   0.09893  -0.13838   0.15343
  35        2PZ         0.02160  -0.00107  -0.02876   0.01779  -0.00967
  36        3S         -1.19002   0.12876   1.51825   2.31468   0.74848
  37        3PX         0.22695   0.34117   0.40341  -0.15147  -0.07322
  38        3PY         0.58175  -0.01702  -0.70585  -1.42640  -0.25481
  39        3PZ        -0.10124   0.27733  -0.00817   0.11182  -0.00627
  40        4XX         0.19262   0.00356  -0.15783  -0.54964  -0.00855
  41        4YY        -0.24589  -0.12363   0.37673   1.19298  -0.10237
  42        4ZZ         0.14633   0.08109  -0.27668  -0.53963  -0.11329
  43        4XY        -0.13876  -0.33458  -0.53851   0.35462   0.05448
  44        4XZ        -0.11184   0.09563  -0.00347  -0.03731  -0.00365
  45        4YZ         0.14400  -0.68647   0.19630  -0.18424   0.00093
  46 4   F  1S          0.01192   0.00178  -0.01590  -0.01198  -0.01136
  47        2S         -0.74541  -0.57162  -0.32370  -0.21435  -0.49116
  48        2PX         0.22575   0.12969   0.01298   0.07711   0.12623
  49        2PY        -0.01567  -0.06999  -0.11954   0.01255  -0.06283
  50        2PZ         0.00603  -0.01631  -0.00417  -0.00161  -0.00390
  51        3S          1.37547   1.14810   0.82631   0.48838   0.98493
  52        3PX        -0.68549  -0.45869  -0.17113  -0.27106  -0.53152
  53        3PY         0.08319   0.24651   0.40957   0.04515   0.22490
  54        3PZ         0.00299   0.05600   0.01753   0.00631   0.01937
  55        4XX         0.37542   0.11962  -0.18410   0.26681   0.21937
  56        4YY        -0.22554  -0.09135   0.07285  -0.28844  -0.14082
  57        4ZZ        -0.25337  -0.16069  -0.10229  -0.13255  -0.25363
  58        4XY        -0.00549  -0.19876  -0.42143   0.01941  -0.33210
  59        4XZ         0.09068   0.01956   0.02809  -0.03804  -0.05017
  60        4YZ        -0.11158   0.08764   0.00294   0.00674   0.03441
                          56        57        58        59        60
                           V         V         V         V         V
     Eigenvalues --     3.00981   3.68127   3.97858   4.16604   4.55048
   1 1   F  1S         -0.00374  -0.11380  -0.12897  -0.23220  -0.69927
   2        2S         -0.43169  -0.30900  -0.43755  -0.61498  -2.71660
   3        2PX        -0.00342   0.00167  -0.11765  -0.13811  -0.24574
   4        2PY         0.03805  -0.04036   0.04636  -0.11826  -0.18666
   5        2PZ        -0.00116   0.01735   0.00623  -0.02124  -0.03546
   6        3S          1.05320   1.46695   1.73429   2.79417  10.52042
   7        3PX         0.76608   0.14159   0.51027  -0.22649   1.46396
   8        3PY         0.30515   0.31200  -0.17761  -0.08927   1.11082
   9        3PZ         0.08461  -0.04374  -0.00800  -0.00874   0.17625
  10        4XX         0.75496  -0.42101  -0.32942  -1.25486  -2.45630
  11        4YY        -0.32298  -0.43755  -0.62053  -1.01811  -2.68964
  12        4ZZ        -0.24723  -0.41460  -0.56367  -0.84372  -3.00564
  13        4XY         0.43486   0.11659   0.02873  -0.28805   0.45402
  14        4XZ         0.13149  -0.01598   0.02404  -0.06184   0.06472
  15        4YZ         0.03824   0.01853  -0.01872  -0.04198   0.04863
  16 2   C  1S         -0.00695  -0.01301   0.06383   0.39783  -0.19212
  17        2S         -0.91945   0.04915  -0.05685  -2.65968   0.73780
  18        2PX         0.60504   0.03775  -0.06456  -0.13722   0.40544
  19        2PY        -0.16855   0.01903   0.14923   0.05780   0.17504
  20        2PZ         0.06755   0.01621   0.01104  -0.07390   0.06578
  21        3S         -0.53755  -2.61188  -0.71071  -0.11766  -1.16282
  22        3PX         0.26920  -0.10987  -0.92092   0.75270   2.11412
  23        3PY        -0.02874  -1.13938   1.19308   0.41895   1.34634
  24        3PZ         0.01642   0.20455   0.07481  -0.01233   0.15404
  25        4XX         0.53330  -0.17676   0.02639   2.04784  -0.89196
  26        4YY        -0.76540   0.01968   0.01031   2.04968  -0.90355
  27        4ZZ         0.26596   0.15071   0.28539   1.36997  -0.45816
  28        4XY        -1.01045   0.01040   0.00653   0.21444  -0.12130
  29        4XZ        -0.03088  -0.01011   0.03777  -0.01305  -0.07194
  30        4YZ        -0.01516  -0.00054  -0.03339   0.00132  -0.01499
  31 3   O  1S         -0.02473  -0.49438   0.18259   0.02599   0.07045
  32        2S         -0.10737  -0.17829   0.21299   0.12553   0.11478
  33        2PX         0.02678  -0.00064  -0.01325   0.01260   0.07495
  34        2PY        -0.21908   0.21025  -0.13378   0.19248  -0.15066
  35        2PZ         0.02750  -0.01349   0.02563  -0.01437   0.03166
  36        3S          0.76511   5.43720  -2.22559  -0.82383  -1.02680
  37        3PX         0.13298   0.01581   0.22561  -0.23456  -0.61488
  38        3PY        -0.57582  -1.23889   0.52395   0.57844   0.00545
  39        3PZ         0.06114   0.07700  -0.09544  -0.07269  -0.08756
  40        4XX        -0.28158  -1.72604   0.59676   0.11719   0.19546
  41        4YY         0.61051  -1.39889   0.49997  -0.37136   0.43314
  42        4ZZ        -0.23619  -1.68415   0.71061   0.15999   0.22460
  43        4XY        -0.44388   0.00387  -0.06663   0.12049   0.16681
  44        4XZ         0.04777   0.00173   0.01604  -0.02214  -0.03771
  45        4YZ        -0.13728  -0.02207   0.01513   0.07617  -0.00908
  46 4   F  1S          0.02492  -0.17682  -0.59875   0.09981   0.15084
  47        2S          0.36171  -0.45154  -1.70452   0.55480   0.42695
  48        2PX        -0.08558   0.04445   0.27073  -0.11457   0.01242
  49        2PY         0.05914  -0.03665  -0.06840   0.07586   0.10587
  50        2PZ         0.00737   0.00590  -0.01695   0.01534   0.02170
  51        3S         -0.77268   2.14728   7.37305  -1.68754  -2.03552
  52        3PX         0.41646  -0.26490  -0.93769   0.48189  -0.05325
  53        3PY        -0.22066   0.21282   0.22104  -0.31504  -0.41417
  54        3PZ        -0.03813  -0.01300   0.05755  -0.05314  -0.07081
  55        4XX        -0.27339  -0.58672  -2.14371   0.12128   0.80684
  56        4YY         0.22250  -0.77360  -2.45623   0.45306   0.48323
  57        4ZZ         0.31402  -0.66516  -2.50244   0.55537   0.54333
  58        4XY         0.27766  -0.09731  -0.10250   0.25845   0.04532
  59        4XZ         0.06664   0.00262  -0.02134   0.04270  -0.00592
  60        4YZ        -0.02031   0.01902  -0.00345  -0.02953  -0.02556
     Density Matrix:
                           1         2         3         4         5
   1 1   F  1S          2.08525
   2        2S         -0.21601   0.57509
   3        2PX         0.03081  -0.05579   0.71135
   4        2PY         0.01944  -0.03131  -0.11118   0.83344
   5        2PZ         0.00433  -0.00525  -0.02216  -0.01541   0.85861
   6        3S         -0.22227   0.56194  -0.15380  -0.09866  -0.03145
   7        3PX         0.01926  -0.04050   0.42891  -0.09553  -0.02058
   8        3PY         0.01229  -0.02345  -0.09293   0.51983  -0.01283
   9        3PZ         0.00267  -0.00349  -0.01838  -0.01212   0.56963
  10        4XX        -0.02272   0.01450   0.03617  -0.00844  -0.00065
  11        4YY        -0.02104   0.01124  -0.00721   0.02851   0.00051
  12        4ZZ        -0.02040   0.01004  -0.00101   0.00111   0.00727
  13        4XY        -0.00234   0.00453   0.01028   0.02097  -0.00098
  14        4XZ        -0.00033   0.00070   0.00170  -0.00128   0.03050
  15        4YZ        -0.00025   0.00055  -0.00129   0.00272   0.01991
  16 2   C  1S          0.00526  -0.01197  -0.08004  -0.04644  -0.00924
  17        2S          0.00159   0.00286   0.18633   0.10630   0.02395
  18        2PX         0.01536  -0.04861  -0.17563  -0.19240  -0.02951
  19        2PY         0.01294  -0.04041  -0.22586  -0.09488  -0.02351
  20        2PZ         0.00156  -0.00650  -0.02421  -0.01372   0.11884
  21        3S          0.01633  -0.03788   0.04027   0.06997  -0.00987
  22        3PX        -0.00520   0.01079   0.04424  -0.02146  -0.01978
  23        3PY        -0.00446   0.00733  -0.05614   0.10175  -0.02296
  24        3PZ        -0.00046  -0.00040  -0.00260  -0.00370   0.05818
  25        4XX        -0.00369   0.00965  -0.01196   0.03593   0.00331
  26        4YY         0.00084  -0.00122   0.01062  -0.03158  -0.00046
  27        4ZZ         0.00301  -0.00736  -0.01252  -0.00850  -0.00435
  28        4XY        -0.00840   0.01960   0.03715   0.01750   0.00618
  29        4XZ        -0.00094   0.00211   0.00428   0.00496  -0.02923
  30        4YZ        -0.00086   0.00206   0.00570   0.00231  -0.02873
  31 3   O  1S         -0.00020   0.00058  -0.00182   0.01504  -0.00224
  32        2S          0.00069  -0.00084  -0.00108  -0.02357   0.00033
  33        2PX        -0.01797   0.02805   0.02096   0.11021   0.00835
  34        2PY        -0.00877   0.02434   0.03508   0.09286  -0.01048
  35        2PZ        -0.00036  -0.00195   0.00199  -0.00294  -0.15040
  36        3S         -0.00479   0.01364   0.05824  -0.11450   0.03507
  37        3PX        -0.01113   0.01654   0.00835   0.07845   0.01288
  38        3PY        -0.00249   0.00771  -0.00398   0.08038  -0.02045
  39        3PZ        -0.00026  -0.00082   0.00655  -0.00567  -0.12239
  40        4XX        -0.00000   0.00003  -0.00395   0.00753  -0.00181
  41        4YY        -0.00016  -0.00007  -0.00024   0.00491  -0.00049
  42        4ZZ         0.00009   0.00018  -0.00085   0.00469  -0.00288
  43        4XY         0.00015   0.00034   0.00471  -0.00047  -0.00056
  44        4XZ        -0.00003  -0.00008  -0.00059   0.00042  -0.00156
  45        4YZ        -0.00005   0.00034   0.00061   0.00051   0.00561
  46 4   F  1S          0.00035   0.00018   0.00997  -0.00388  -0.00106
  47        2S          0.00089  -0.00166  -0.01661   0.00194  -0.00275
  48        2PX        -0.01444   0.02258   0.15155  -0.01439   0.00659
  49        2PY        -0.00636  -0.00918   0.00896   0.00054   0.00107
  50        2PZ        -0.00106  -0.00607  -0.00604   0.00222  -0.04738
  51        3S         -0.00458   0.00878  -0.05674   0.03395   0.01686
  52        3PX        -0.00802   0.01117   0.11164  -0.02207   0.00106
  53        3PY        -0.00456  -0.00603   0.00149  -0.00177   0.00713
  54        3PZ        -0.00070  -0.00432  -0.00620   0.00345  -0.04048
  55        4XX         0.00086  -0.00105   0.00384  -0.00030  -0.00231
  56        4YY         0.00050  -0.00106   0.00274  -0.00463  -0.00159
  57        4ZZ         0.00082  -0.00136   0.00246  -0.00302  -0.00258
  58        4XY         0.00015   0.00026   0.00225  -0.00048  -0.00103
  59        4XZ        -0.00001   0.00026   0.00071  -0.00038   0.00086
  60        4YZ        -0.00004  -0.00008  -0.00012  -0.00011  -0.00199
                           6         7         8         9        10
   6        3S          0.62525
   7        3PX        -0.08614   0.26186
   8        3PY        -0.05474  -0.07228   0.32663
   9        3PZ        -0.01918  -0.01563  -0.00953   0.37926
  10        4XX         0.00394   0.02070  -0.00713  -0.00067   0.00321
  11        4YY         0.00416  -0.00630   0.01715   0.00022   0.00044
  12        4ZZ         0.00657  -0.00140   0.00026   0.00477   0.00066
  13        4XY        -0.00015   0.00533   0.01253  -0.00079   0.00076
  14        4XZ        -0.00054   0.00080  -0.00102   0.01990   0.00013
  15        4YZ        -0.00035  -0.00102   0.00159   0.01296  -0.00004
  16 2   C  1S          0.01425  -0.04895  -0.02829  -0.00501  -0.00852
  17        2S         -0.07312   0.10567   0.05831   0.01225   0.01730
  18        2PX         0.02925  -0.09197  -0.10301  -0.01679  -0.00765
  19        2PY         0.02202  -0.12203  -0.04861  -0.01289  -0.01694
  20        2PZ         0.00570  -0.01156  -0.00709   0.06100  -0.00294
  21        3S         -0.07486   0.01938   0.03928  -0.00927   0.00622
  22        3PX         0.03956   0.03342  -0.00812  -0.01251   0.00081
  23        3PY         0.03974  -0.03001   0.06542  -0.01414  -0.00695
  24        3PZ         0.00515  -0.00014  -0.00114   0.02940  -0.00096
  25        4XX         0.00855  -0.00880   0.02212   0.00219  -0.00044
  26        4YY         0.00005   0.00765  -0.01950  -0.00034   0.00048
  27        4ZZ        -0.00243  -0.00699  -0.00469  -0.00250  -0.00118
  28        4XY         0.02141   0.02316   0.01115   0.00425   0.00145
  29        4XZ         0.00213   0.00255   0.00315  -0.01972   0.00017
  30        4YZ         0.00155   0.00362   0.00112  -0.01994   0.00037
  31 3   O  1S         -0.00376  -0.00304   0.00673  -0.00154  -0.00005
  32        2S          0.01043   0.00373  -0.00755   0.00039   0.00001
  33        2PX         0.14219   0.03329   0.09893   0.01027  -0.00684
  34        2PY         0.02520   0.01308   0.05707  -0.01019   0.00122
  35        2PZ         0.00971   0.00761  -0.00207  -0.11940  -0.00119
  36        3S          0.00555   0.03552  -0.06552   0.02200   0.00541
  37        3PX         0.09074   0.01829   0.06850   0.01183  -0.00496
  38        3PY         0.01490  -0.00585   0.05045  -0.01508  -0.00119
  39        3PZ         0.00471   0.00793  -0.00413  -0.09323  -0.00024
  40        4XX         0.00141  -0.00240   0.00463  -0.00112  -0.00040
  41        4YY        -0.00131   0.00008   0.00301  -0.00008   0.00014
  42        4ZZ         0.00099  -0.00046   0.00295  -0.00205  -0.00017
  43        4XY        -0.00644   0.00166  -0.00193  -0.00067   0.00055
  44        4XZ         0.00067  -0.00025   0.00047  -0.00102  -0.00007
  45        4YZ        -0.00034  -0.00002   0.00029   0.00503   0.00011
  46 4   F  1S         -0.00380   0.00453  -0.00297  -0.00076   0.00065
  47        2S          0.00336  -0.00678   0.00124  -0.00183  -0.00023
  48        2PX         0.10234   0.11175  -0.00691   0.00608  -0.00909
  49        2PY         0.10072   0.02689  -0.00017   0.00563  -0.00803
  50        2PZ         0.02684  -0.00122   0.01182  -0.04817  -0.00370
  51        3S          0.01033  -0.03326   0.01945   0.01107  -0.00375
  52        3PX         0.06939   0.08233  -0.01133   0.00205  -0.00581
  53        3PY         0.06717   0.01510  -0.00172   0.00807  -0.00564
  54        3PZ         0.01823  -0.00223   0.00933  -0.03807  -0.00265
  55        4XX        -0.00621   0.00154  -0.00052  -0.00167   0.00129
  56        4YY         0.00195   0.00243  -0.00255  -0.00091   0.00000
  57        4ZZ        -0.00030   0.00182  -0.00175  -0.00175   0.00010
  58        4XY        -0.00163   0.00096  -0.00039  -0.00080   0.00008
  59        4XZ        -0.00041   0.00039  -0.00051   0.00122   0.00008
  60        4YZ         0.00046   0.00003   0.00001  -0.00156  -0.00005
                          11        12        13        14        15
  11        4YY         0.00196
  12        4ZZ         0.00067   0.00057
  13        4XY         0.00094   0.00013   0.00102
  14        4XZ        -0.00001   0.00027   0.00001   0.00119
  15        4YZ         0.00014   0.00020   0.00006   0.00079   0.00056
  16 2   C  1S         -0.00287   0.00087  -0.00741  -0.00127  -0.00092
  17        2S          0.00716   0.00077   0.01335   0.00228   0.00170
  18        2PX        -0.01301  -0.00355  -0.00931  -0.00168  -0.00173
  19        2PY         0.00068  -0.00263  -0.00240  -0.00180  -0.00023
  20        2PZ        -0.00203   0.00064  -0.00157   0.00947   0.00751
  21        3S          0.00275  -0.00033   0.00528   0.00063   0.00076
  22        3PX        -0.00442  -0.00182   0.00019  -0.00056  -0.00071
  23        3PY         0.00104  -0.00211   0.00185  -0.00086   0.00008
  24        3PZ        -0.00082   0.00012  -0.00017   0.00454   0.00337
  25        4XX         0.00093   0.00018   0.00042   0.00009   0.00016
  26        4YY        -0.00078  -0.00001  -0.00052   0.00003  -0.00008
  27        4ZZ        -0.00066  -0.00022  -0.00088  -0.00029  -0.00022
  28        4XY         0.00002   0.00002   0.00125   0.00032   0.00019
  29        4XZ         0.00019  -0.00026   0.00027  -0.00103  -0.00074
  30        4YZ        -0.00001  -0.00010   0.00009  -0.00066  -0.00029
  31 3   O  1S         -0.00034   0.00006  -0.00014   0.00001   0.00002
  32        2S          0.00076  -0.00002   0.00057  -0.00019  -0.00005
  33        2PX        -0.00866  -0.00474   0.00245  -0.00035   0.00015
  34        2PY        -0.00314   0.00134  -0.00494   0.00044   0.00007
  35        2PZ        -0.00117  -0.00085  -0.00009   0.00145   0.00344
  36        3S         -0.00183   0.00235  -0.00356   0.00111  -0.00001
  37        3PX        -0.00530  -0.00300   0.00163  -0.00001   0.00031
  38        3PY        -0.00106   0.00007  -0.00187  -0.00027  -0.00003
  39        3PZ        -0.00077  -0.00052  -0.00021  -0.00004   0.00162
  40        4XX         0.00005  -0.00011   0.00004  -0.00007  -0.00001
  41        4YY         0.00054  -0.00010   0.00077  -0.00007  -0.00000
  42        4ZZ         0.00000  -0.00006   0.00005  -0.00004   0.00002
  43        4XY         0.00068   0.00029   0.00015   0.00003   0.00001
  44        4XZ        -0.00005  -0.00005  -0.00000  -0.00007  -0.00006
  45        4YZ         0.00006   0.00003  -0.00000  -0.00024  -0.00031
  46 4   F  1S         -0.00016   0.00065  -0.00017  -0.00003  -0.00013
  47        2S          0.00012  -0.00057  -0.00007  -0.00015  -0.00003
  48        2PX        -0.00411  -0.00431   0.00179   0.00039   0.00019
  49        2PY        -0.01345  -0.00902   0.00007   0.00050  -0.00024
  50        2PZ        -0.00262  -0.00405   0.00080  -0.00036  -0.00272
  51        3S          0.00333   0.00048  -0.00040   0.00037   0.00070
  52        3PX        -0.00388  -0.00327   0.00103   0.00014  -0.00006
  53        3PY        -0.00889  -0.00593  -0.00014   0.00053  -0.00003
  54        3PZ        -0.00167  -0.00285   0.00057  -0.00065  -0.00218
  55        4XX         0.00001   0.00009   0.00027  -0.00003  -0.00006
  56        4YY        -0.00053  -0.00025  -0.00005  -0.00005  -0.00008
  57        4ZZ        -0.00030  -0.00015  -0.00003  -0.00008  -0.00009
  58        4XY         0.00023   0.00018  -0.00008  -0.00004  -0.00002
  59        4XZ         0.00006   0.00009  -0.00003  -0.00007   0.00000
  60        4YZ        -0.00006  -0.00006   0.00000  -0.00002  -0.00002
                          16        17        18        19        20
  16 2   C  1S          2.04602
  17        2S         -0.07991   0.40240
  18        2PX        -0.00318   0.00594   0.30469
  19        2PY        -0.02229   0.05441   0.00737   0.39075
  20        2PZ        -0.00290   0.00571   0.00276  -0.00433   0.32096
  21        3S         -0.08967   0.19377   0.04573  -0.00441   0.02656
  22        3PX        -0.01047   0.02045   0.05774  -0.02140  -0.00170
  23        3PY         0.00593  -0.01273  -0.02323   0.03571   0.00652
  24        3PZ        -0.00659   0.01490  -0.00078   0.00069   0.14842
  25        4XX        -0.01094  -0.01330  -0.00367  -0.02625   0.00031
  26        4YY        -0.01640  -0.00063  -0.00059   0.01522   0.00092
  27        4ZZ        -0.00923  -0.02126   0.00472  -0.00143  -0.00286
  28        4XY        -0.00109   0.00543  -0.01261  -0.01368  -0.00103
  29        4XZ         0.00004   0.00018  -0.00335  -0.00102  -0.00472
  30        4YZ        -0.00007   0.00008  -0.00101  -0.00477   0.01510
  31 3   O  1S          0.00925  -0.00782   0.00104  -0.03733   0.00456
  32        2S         -0.02208   0.02209  -0.00377   0.09085  -0.01130
  33        2PX        -0.00731   0.02324   0.19650  -0.01911  -0.00453
  34        2PY         0.11114  -0.27932  -0.00170  -0.36271   0.05621
  35        2PZ        -0.01866   0.04241  -0.00293   0.03679   0.36371
  36        3S          0.02182  -0.08611  -0.00184  -0.03314  -0.00644
  37        3PX        -0.00228   0.01086   0.12202  -0.00826  -0.00292
  38        3PY         0.05401  -0.13410   0.00140  -0.17273   0.03267
  39        3PZ        -0.00995   0.02192  -0.00165   0.01832   0.22627
  40        4XX         0.00132  -0.00325  -0.00064  -0.00307   0.00016
  41        4YY        -0.01073   0.02554  -0.00033   0.02142  -0.00510
  42        4ZZ         0.00055  -0.00134  -0.00010  -0.00243   0.00363
  43        4XY         0.00009  -0.00041  -0.01569   0.00088   0.00008
  44        4XZ         0.00004  -0.00007   0.00149   0.00001  -0.00071
  45        4YZ         0.00169  -0.00375   0.00007  -0.00347  -0.02389
  46 4   F  1S         -0.00141   0.00804  -0.00040   0.00215   0.00039
  47        2S         -0.00062  -0.01189   0.01281  -0.01136  -0.00244
  48        2PX         0.06569  -0.14856  -0.23836   0.16901   0.00567
  49        2PY        -0.01626   0.03654   0.09039  -0.03561  -0.00139
  50        2PZ        -0.00655   0.01694   0.02205  -0.01439   0.07219
  51        3S          0.02974  -0.07561  -0.06013   0.02113   0.00340
  52        3PX         0.04252  -0.09296  -0.14447   0.11135   0.00196
  53        3PY        -0.00871   0.01890   0.05621  -0.02170  -0.00095
  54        3PZ        -0.00371   0.00968   0.01413  -0.00935   0.04179
  55        4XX        -0.01049   0.01989   0.01628  -0.01268  -0.00126
  56        4YY        -0.00186   0.00338   0.00680  -0.00054  -0.00091
  57        4ZZ        -0.00127   0.00241   0.00407  -0.00156  -0.00011
  58        4XY         0.00344  -0.00669  -0.00633  -0.00045   0.00047
  59        4XZ         0.00084  -0.00165  -0.00149   0.00097  -0.00558
  60        4YZ        -0.00030   0.00061   0.00060   0.00007   0.00261
                          21        22        23        24        25
  21        3S          0.13195
  22        3PX         0.00589   0.04093
  23        3PY         0.00275   0.00420   0.06231
  24        3PZ         0.01410   0.00176   0.00105   0.07343
  25        4XX        -0.00051  -0.00118   0.00717  -0.00042   0.00457
[...]
  48        2PX         0.01238  -0.00124   0.00523   0.00008   0.00096
  49        2PY         0.00220   0.00288   0.00721   0.00002   0.00105
  50        2PZ        -0.00004   0.00028   0.00006   0.00619   0.00002
  51        3S         -0.02266  -0.02135  -0.00339  -0.00001   0.00194
  52        3PX         0.03669  -0.00403   0.01162   0.00018   0.00255
  53        3PY         0.00624   0.00604   0.02494   0.00004   0.00276
  54        3PZ        -0.00015   0.00064   0.00015   0.01844   0.00005
  55        4XX         0.00377   0.00055   0.00088   0.00001   0.00015
  56        4YY         0.00042   0.00111  -0.00013   0.00001  -0.00000
  57        4ZZ         0.00031   0.00052  -0.00001  -0.00000  -0.00000
  58        4XY         0.00029   0.00008   0.00026   0.00000   0.00008
  59        4XZ         0.00001   0.00001   0.00000   0.00051   0.00000
  60        4YZ         0.00000   0.00000   0.00000   0.00008   0.00000
                          26        27        28        29        30
  26        4YY         0.00311
  27        4ZZ        -0.00003   0.00153
  28        4XY        -0.00000  -0.00000   0.00689
  29        4XZ         0.00000  -0.00000   0.00000   0.00160
  30        4YZ        -0.00000  -0.00000  -0.00000   0.00000   0.00283
  31 3   O  1S         -0.00055   0.00000   0.00000  -0.00000  -0.00001
  32        2S          0.00735  -0.00037  -0.00000   0.00000   0.00014
  33        2PX         0.00000  -0.00000   0.00723   0.00003   0.00000
  34        2PY         0.00336  -0.00065  -0.00000   0.00000   0.00043
  35        2PZ         0.00015   0.00004  -0.00000  -0.00000   0.00479
  36        3S          0.01161  -0.00101   0.00000   0.00000   0.00012
  37        3PX         0.00000  -0.00000   0.00775   0.00004   0.00000
  38        3PY         0.00286  -0.00190  -0.00000   0.00000   0.00014
  39        3PZ         0.00015  -0.00003  -0.00000  -0.00000   0.00553
  40        4XX        -0.00018   0.00001  -0.00000   0.00000  -0.00000
  41        4YY         0.00003  -0.00020   0.00000  -0.00000   0.00004
  42        4ZZ        -0.00009   0.00001   0.00000   0.00000   0.00001
  43        4XY         0.00000  -0.00000   0.00059   0.00001  -0.00000
  44        4XZ         0.00000   0.00000   0.00001   0.00001   0.00000
  45        4YZ         0.00002   0.00001  -0.00000  -0.00000   0.00069
  46 4   F  1S          0.00000   0.00000  -0.00001  -0.00000  -0.00000
  47        2S         -0.00007  -0.00001   0.00038   0.00001   0.00000
  48        2PX        -0.00031  -0.00003   0.00230   0.00004   0.00001
  49        2PY         0.00002  -0.00001  -0.00000   0.00001  -0.00000
  50        2PZ        -0.00000   0.00000   0.00002   0.00055   0.00014
  51        3S         -0.00037  -0.00006   0.00094   0.00001  -0.00000
  52        3PX        -0.00192  -0.00038   0.00367   0.00006   0.00002
  53        3PY        -0.00029  -0.00006  -0.00001   0.00002   0.00000
  54        3PZ        -0.00003  -0.00000   0.00004   0.00218   0.00057
  55        4XX        -0.00011  -0.00006   0.00029   0.00000   0.00000
  56        4YY        -0.00000  -0.00000   0.00000   0.00000   0.00000
  57        4ZZ        -0.00000  -0.00000  -0.00000   0.00000  -0.00000
  58        4XY         0.00000  -0.00001  -0.00000   0.00000   0.00000
  59        4XZ        -0.00000   0.00000   0.00001   0.00008   0.00001
  60        4YZ         0.00000   0.00000  -0.00000   0.00001   0.00000
                          31        32        33        34        35
  31 3   O  1S          2.08015
  32        2S         -0.04403   0.53068
  33        2PX         0.00000   0.00000   0.80745
  34        2PY         0.00000   0.00000  -0.00000   0.56630
  35        2PZ         0.00000   0.00000  -0.00000   0.00000   0.57922
  36        3S         -0.04249   0.46342   0.00000   0.00000   0.00000
  37        3PX         0.00000   0.00000   0.26228  -0.00000  -0.00000
  38        3PY         0.00000   0.00000  -0.00000   0.14384   0.00000
  39        3PZ         0.00000   0.00000  -0.00000   0.00000   0.18993
  40        4XX        -0.00037  -0.00573   0.00000   0.00000   0.00000
  41        4YY        -0.00037  -0.00456   0.00000   0.00000   0.00000
  42        4ZZ        -0.00044  -0.00323   0.00000   0.00000   0.00000
  43        4XY        -0.00000  -0.00000   0.00000   0.00000   0.00000
  44        4XZ        -0.00000  -0.00000   0.00000   0.00000   0.00000
  45        4YZ        -0.00000   0.00000   0.00000   0.00000   0.00000
  46 4   F  1S          0.00000   0.00000   0.00000   0.00000   0.00000
  47        2S          0.00000  -0.00000  -0.00000  -0.00000  -0.00000
  48        2PX         0.00000  -0.00000  -0.00001  -0.00001  -0.00000
  49        2PY         0.00000  -0.00000  -0.00001  -0.00000  -0.00000
  50        2PZ         0.00000   0.00000   0.00000  -0.00000  -0.00000
  51        3S         -0.00000   0.00003  -0.00054  -0.00021   0.00000
  52        3PX         0.00000  -0.00014  -0.00097  -0.00096  -0.00000
  53        3PY         0.00001  -0.00015  -0.00120  -0.00077  -0.00000
  54        3PZ         0.00000   0.00000   0.00000  -0.00000  -0.00027
  55        4XX         0.00000  -0.00000  -0.00000  -0.00000  -0.00000
  56        4YY         0.00000  -0.00000   0.00002   0.00000  -0.00000
  57        4ZZ         0.00000  -0.00000   0.00000   0.00000   0.00000
  58        4XY         0.00000  -0.00000  -0.00000   0.00001  -0.00000
  59        4XZ         0.00000   0.00000   0.00000   0.00000   0.00000
  60        4YZ        -0.00000   0.00000   0.00000   0.00000   0.00000
                          36        37        38        39        40
  36        3S          0.80356
  37        3PX         0.00000   0.33915
  38        3PY         0.00000  -0.00000   0.15101
  39        3PZ         0.00000  -0.00000   0.00000   0.24963
  40        4XX        -0.00942   0.00000   0.00000   0.00000   0.00057
  41        4YY        -0.01653   0.00000   0.00000   0.00000   0.00002
  42        4ZZ        -0.00504   0.00000   0.00000   0.00000   0.00012
  43        4XY         0.00000   0.00000   0.00000   0.00000   0.00000
  44        4XZ        -0.00000   0.00000   0.00000   0.00000   0.00000
  45        4YZ         0.00000   0.00000   0.00000   0.00000  -0.00000
  46 4   F  1S         -0.00000   0.00002   0.00001  -0.00000  -0.00000
  47        2S          0.00004  -0.00041  -0.00020  -0.00000   0.00000
  48        2PX         0.00015  -0.00087  -0.00081  -0.00000  -0.00000
  49        2PY        -0.00131  -0.00128  -0.00162  -0.00000   0.00001
  50        2PZ        -0.00000   0.00000  -0.00000  -0.00046   0.00000
  51        3S          0.00113  -0.00504  -0.00144   0.00000   0.00001
  52        3PX         0.00131  -0.00461  -0.00432  -0.00000  -0.00002
  53        3PY        -0.00880  -0.00721  -0.00712  -0.00001   0.00032
  54        3PZ        -0.00001   0.00001  -0.00001  -0.00359   0.00000
  55        4XX        -0.00004  -0.00008  -0.00002  -0.00000  -0.00000
  56        4YY        -0.00009   0.00035   0.00002  -0.00000   0.00000
  57        4ZZ        -0.00002   0.00005   0.00000  -0.00000   0.00000
  58        4XY        -0.00014  -0.00003   0.00002  -0.00000   0.00000
  59        4XZ        -0.00000   0.00000   0.00000   0.00000   0.00000
  60        4YZ         0.00000   0.00000   0.00000   0.00003  -0.00000
                          41        42        43        44        45
  41        4YY         0.00308
  42        4ZZ         0.00001   0.00032
  43        4XY        -0.00000  -0.00000   0.00187
  44        4XZ        -0.00000   0.00000  -0.00000   0.00003
  45        4YZ         0.00000  -0.00000   0.00000   0.00000   0.00225
  46 4   F  1S          0.00000   0.00000   0.00000   0.00000  -0.00000
  47        2S         -0.00000  -0.00000  -0.00000  -0.00000  -0.00000
  48        2PX        -0.00000  -0.00000   0.00000  -0.00000  -0.00000
  49        2PY         0.00000   0.00000   0.00000  -0.00000  -0.00000
  50        2PZ         0.00000  -0.00000   0.00000   0.00000  -0.00000
  51        3S         -0.00006  -0.00000  -0.00011  -0.00000   0.00000
  52        3PX        -0.00009  -0.00001  -0.00001  -0.00000  -0.00000
  53        3PY         0.00004   0.00004  -0.00001  -0.00000  -0.00000
  54        3PZ         0.00000   0.00000   0.00000   0.00002  -0.00005
  55        4XX         0.00000  -0.00000   0.00000   0.00000  -0.00000
  56        4YY         0.00000   0.00000   0.00001   0.00000  -0.00000
  57        4ZZ         0.00000   0.00000   0.00000  -0.00000   0.00000
  58        4XY         0.00001   0.00000   0.00000   0.00000  -0.00000
  59        4XZ         0.00000  -0.00000   0.00000   0.00000   0.00000
  60        4YZ         0.00000   0.00000   0.00000   0.00000   0.00000
                          46        47        48        49        50
  46 4   F  1S          2.08746
  47        2S         -0.05260   0.56228
  48        2PX         0.00000   0.00000   0.62046
  49        2PY         0.00000   0.00000   0.00000   0.87992
  50        2PZ         0.00000   0.00000  -0.00000  -0.00000   0.86394
  51        3S         -0.04087   0.44876   0.00000   0.00000   0.00000
  52        3PX         0.00000   0.00000   0.20633   0.00000  -0.00000
  53        3PY         0.00000   0.00000   0.00000   0.29521  -0.00000
  54        3PZ         0.00000   0.00000  -0.00000  -0.00000   0.29950
  55        4XX        -0.00052   0.00687   0.00000   0.00000   0.00000
  56        4YY        -0.00041   0.00190   0.00000   0.00000   0.00000
  57        4ZZ        -0.00041   0.00189   0.00000   0.00000   0.00000
  58        4XY         0.00000  -0.00000   0.00000   0.00000   0.00000
  59        4XZ        -0.00000   0.00000   0.00000   0.00000   0.00000
  60        4YZ        -0.00000   0.00000   0.00000   0.00000   0.00000
                          51        52        53        54        55
  51        3S          0.64922
  52        3PX         0.00000   0.27698
  53        3PY         0.00000   0.00000   0.39732
  54        3PZ         0.00000  -0.00000  -0.00000   0.41641
  55        4XX         0.00574   0.00000   0.00000   0.00000   0.00343
  56        4YY         0.00125   0.00000   0.00000   0.00000   0.00021
  57        4ZZ         0.00189   0.00000   0.00000   0.00000   0.00020
  58        4XY        -0.00000   0.00000   0.00000   0.00000  -0.00000
  59        4XZ         0.00000   0.00000   0.00000   0.00000   0.00000
  60        4YZ         0.00000   0.00000   0.00000   0.00000   0.00000
                          56        57        58        59        60
  56        4YY         0.00054
  57        4ZZ         0.00012   0.00029
  58        4XY        -0.00000  -0.00000   0.00064
  59        4XZ         0.00000   0.00000   0.00000   0.00067
  60        4YZ         0.00000   0.00000   0.00000  -0.00000   0.00007
     Gross orbital populations:
                           1
   1 1   F  1S          1.99321
   2        2S          0.97001
   3        2PX         0.99860
   4        2PY         1.13511
   5        2PZ         1.15864
   6        3S          0.92126
   7        3PX         0.57009
   8        3PY         0.63183
   9        3PZ         0.69132
  10        4XX         0.02817
  11        4YY         0.01782
  12        4ZZ         0.01177
  13        4XY         0.00635
  14        4XZ         0.00381
  15        4YZ         0.00208
  16 2   C  1S          1.99164
  17        2S          0.72752
  18        2PX         0.54309
  19        2PY         0.66135
  20        2PZ         0.52517
  21        3S          0.24455
  22        3PX         0.11407
  23        3PY         0.08247
  24        3PZ         0.27351
  25        4XX         0.00437
  26        4YY         0.01902
  27        4ZZ        -0.02772
  28        4XY         0.04903
  29        4XZ         0.01149
  30        4YZ         0.02030
  31 3   O  1S          1.99286
  32        2S          0.93428
  33        2PX         1.10855
  34        2PY         0.86612
  35        2PZ         0.82374
  36        3S          1.01776
  37        3PX         0.65555
  38        3PY         0.40485
  39        3PZ         0.54335
  40        4XX        -0.01312
  41        4YY         0.00561
  42        4ZZ        -0.00759
  43        4XY         0.00687
  44        4XZ         0.00012
  45        4YZ         0.01004
  46 4   F  1S          1.99342
  47        2S          0.96136
  48        2PX         0.87448
  49        2PY         1.18808
  50        2PZ         1.17144
  51        3S          0.98898
  52        3PX         0.59154
  53        3PY         0.71644
  54        3PZ         0.73863
  55        4XX         0.03025
  56        4YY         0.00633
  57        4ZZ         0.00529
  58        4XY         0.00272
  59        4XZ         0.00185
  60        4YZ         0.00030
          Condensed to atoms (all electrons):
               1          2          3          4
     1  F    8.909453   0.293608  -0.045331  -0.017674
     2  C    0.293608   4.240104   0.475700   0.230442
     3  O   -0.045331   0.475700   7.970067  -0.051444
     4  F   -0.017674   0.230442  -0.051444   9.109774
 Mulliken charges:
               1
     1  F   -0.140056
     2  C    0.760145
     3  O   -0.348992
     4  F   -0.271098
 Sum of Mulliken charges =  -0.00000
 Mulliken charges with hydrogens summed into heavy atoms:
               1
     1  F   -0.140056
     2  C    0.760145
     3  O   -0.348992
     4  F   -0.271098
 Electronic spatial extent (au):  <R**2>=            223.9760
 Charge=             -0.0000 electrons
 Dipole moment (field-independent basis, Debye):
    X=             -1.1651    Y=             -1.3541    Z=              0.2536  Tot=              1.8042
 Quadrupole moment (field-independent basis, Debye-Ang):
   XX=            -20.9271   YY=            -22.3126   ZZ=            -18.6484
   XY=              0.7079   XZ=             -0.0544   YZ=             -0.0285
 Traceless Quadrupole moment (field-independent basis, Debye-Ang):
   XX=             -0.2977   YY=             -1.6832   ZZ=              1.9809
   XY=              0.7079   XZ=             -0.0544   YZ=             -0.0285
 Octapole moment (field-independent basis, Debye-Ang**2):
  XXX=             -1.1866  YYY=             -7.9830  ZZZ=             -0.3117  XYY=              0.0104
  XXY=             -1.5359  XXZ=             -0.2762  XZZ=             -0.1729  YZZ=             -1.6191
  YYZ=             -0.2478  XYZ=             -0.0122
 Hexadecapole moment (field-independent basis, Debye-Ang**3):
 XXXX=           -100.1413 YYYY=            -93.1411 ZZZZ=            -12.3132 XXXY=              1.8614
 XXXZ=             -0.0637 YYYX=              1.9234 YYYZ=             -0.1039 ZZZX=              0.0189
 ZZZY=             -0.0179 XXYY=            -32.3087 XXZZ=            -19.0416 YYZZ=            -16.8537
 XXYZ=              0.1775 YYXZ=              0.0403 ZZXY=              0.4120
 N-N= 1.098162087058D+02 E-N=-9.607700844190D+02  KE= 3.100141101820D+02
 Orbital energies and kinetic energies (alpha):
                                 1                 2
   1         O               -24.828641         37.082527
   2         O               -24.732032         37.086666
   3         O               -19.218131         29.033574
   4         O               -10.476641         15.897812
   5         O                -1.343723          3.619253
   6         O                -1.184883          3.722622
   7         O                -1.067470          2.850542
   8         O                -0.703885          3.085819
   9         O                -0.588010          2.651911
  10         O                -0.569219          2.657444
  11         O                -0.545150          2.871582
  12         O                -0.463987          3.027397
  13         O                -0.441585          2.894269
  14         O                -0.424694          3.109796
  15         O                -0.382789          2.688175
  16         O                -0.342751          2.727665
  17         V                -0.093883          2.756963
  18         V                -0.026093          3.275119
  19         V                 0.174385          3.186296
  20         V                 0.281860          2.456323
  21         V                 0.466238          2.292354
  22         V                 0.474980          1.952759
  23         V                 0.502671          2.083776
  24         V                 0.548381          2.682863
  25         V                 0.833146          2.652847
  26         V                 0.927739          3.562411
  27         V                 0.933218          3.443978
  28         V                 1.039468          3.268144
  29         V                 1.075971          3.900013
  30         V                 1.117905          3.653041
  31         V                 1.217122          3.085225
  32         V                 1.254535          4.182404
  33         V                 1.259692          4.141612
  34         V                 1.328459          3.786759
  35         V                 1.355253          2.830464
  36         V                 1.391541          2.927511
  37         V                 1.514007          3.466514
  38         V                 1.600418          3.513623
  39         V                 1.719463          3.087586
  40         V                 1.746902          2.861440
  41         V                 1.761828          2.963257
  42         V                 1.773934          2.980261
  43         V                 1.809776          3.178298
  44         V                 1.832932          2.956295
  45         V                 1.835510          2.862894
  46         V                 1.884384          3.118446
  47         V                 1.946180          3.370649
  48         V                 1.953645          3.368587
  49         V                 2.101026          3.633139
  50         V                 2.320173          3.833074
  51         V                 2.522099          4.611549
  52         V                 2.546834          4.305909
  53         V                 2.646513          4.769265
  54         V                 2.803621          4.748647
  55         V                 2.946841          5.669746
  56         V                 3.009808          4.811925
  57         V                 3.681272         10.324165
  58         V                 3.978579         11.375042
  59         V                 4.166042          9.821365
  60         V                 4.550479         12.323283
 Total kinetic energy from orbitals= 3.100141101820D+02
 Unable to Open any file for archive entry.
 1\1\GINC-SPARTAN-BM162\SP\RB3LYP\6-31G(d)\C1F2O1\AKHALILOV\20-Mar-2025
 \0\\# B3LYP/6-31G(d) pop=full density=current\\CF2O Time step 45\\0,1\
 F,0,1.227101,-0.582656,0.055359\C,0,0.110316,0.081294,-0.094184\O,0,-0
 .000006,1.348505,-0.072132\F,0,-1.296775,-0.60401,0.064859\\Version=ES
 64L-G16RevC.01\State=1-A\HF=-312.9479171\RMSD=1.807e-09\Dipole=0.50236
 58,-0.4968464,-0.0680052\Quadrupole=-0.1384356,-1.3182566,1.4566922,-0
 .4303065,-0.0030022,0.2156408\PG=C01 [X(C1F2O1)]\\@
 The archive entry for this job was punched.


 WE HAVE SEEN THAT MAN ON THE AVERAGE DOES NOT LIVE ABOVE
 TWO-AND-TWENTY YEARS.  DURING THESE TWO AND TWENTY
 YEARS HE IS LIABLE TO TWO AND TWENTY THOUSAND EVILS,
 MANY OF WHICH ARE INCURABLE.  YET EVEN IN THIS DREADFUL STATE
 MEN STILL STRUT AND POSE ON THE STAGE OF LIFE.
 THEY MAKE LOVE AT THE RISK OF DESTRUCTION,
 INTRIGUE, CARRY ON WAR, AND FORM PROJECTS, JUST AS IF THEY
 WERE TO LIVE IN LUXURY AND HAPPINESS FOR A THOUSAND
 AGES.

                                              -- VOLTAIRE
 Job cpu time:       0 days  0 hours  0 minutes  3.1 seconds.
 Elapsed time:       0 days  0 hours  0 minutes  1.0 seconds.
 File lengths (MBytes):  RWF=      6 Int=      0 D2E=      0 Chk=      1 Scr=      1
 Normal termination of Gaussian 16 at Thu Mar 20 00:08:16 2025.
