 Entering Gaussian System, Link 0=g16
 Input=CF2O_1000K_step0030.gjf
 Output=CF2O_1000K_step0030.log
 Initial command:
 /apps/easybuild-2022/easybuild/software/Compiler/NVHPC/22.11-CUDA-11.7.0/Gaussian/g16c01-CUDA-11.7.0/g16/l1.exe "/tmp/Gau-265115.inp" -scrdir="/tmp/"
 Default is to use a total of   4 processors:
                                4 via shared-memory
                                1 via Linda
 Entering Link 1 = /apps/easybuild-2022/easybuild/software/Compiler/NVHPC/22.11-CUDA-11.7.0/Gaussian/g16c01-CUDA-11.7.0/g16/l1.exe PID=    265116.
  
 Copyright (c) 1988-2019, Gaussian, Inc.  All Rights Reserved.
  
 This is part of the Gaussian(R) 16 program.  It is based on
 the Gaussian(R) 09 system (copyright 2009, Gaussian, Inc.),
 the Gaussian(R) 03 system (copyright 2003, Gaussian, Inc.),
 the Gaussian(R) 98 system (copyright 1998, Gaussian, Inc.),
 the Gaussian(R) 94 system (copyright 1995, Gaussian, Inc.),
 the Gaussian 92(TM) system (copyright 1992, Gaussian, Inc.),
 the Gaussian 90(TM) system (copyright 1990, Gaussian, Inc.),
 the Gaussian 88(TM) system (copyright 1988, Gaussian, Inc.),
 the Gaussian 86(TM) system (copyright 1986, Carnegie Mellon
 University), and the Gaussian 82(TM) system (copyright 1983,
 Carnegie Mellon University). Gaussian is a federally registered
 trademark of Gaussian, Inc.
  
 This software contains proprietary and confidential information,
 including trade secrets, belonging to Gaussian, Inc.
  
 This software is provided under written license and may be
 used, copied, transmitted, or stored only in accord with that
 written license.
  
 The following legend is applicable only to US Government
 contracts under FAR:
  
                    RESTRICTED RIGHTS LEGEND
  
 Use, reproduction and disclosure by the US Government is
 subject to restrictions as set forth in subparagraphs (a)
 and (c) of the Commercial Computer Software - Restricted
 Rights clause in FAR 52.227-19.
  
 Gaussian, Inc.
 340 Quinnipiac St., Bldg. 40, Wallingford CT 06492
  
  
 ---------------------------------------------------------------
 Warning -- This program may not be used in any manner that
 competes with the business of Gaussian, Inc. or will provide
 assistance to any competitor of Gaussian, Inc.  The licensee
 of this program is prohibited from giving any competitor of
 Gaussian, Inc. access to this program.  By using this program,
 the user acknowledges that Gaussian, Inc. is engaged in the
 business of creating and licensing software in the field of
 computational chemistry and represents and warrants to the
 licensee that it is not a competitor of Gaussian, Inc. and that
 it will not use this program in any manner prohibited above.
 ---------------------------------------------------------------
  

 Cite this work as:
 Gaussian 16, Revision C.01,
 M. J. Frisch, G. W. Trucks, H. B. Schlegel, G. E. Scuseria, 
 M. A. Robb, J. R. Cheeseman, G. Scalmani, V. Barone, 
 G. A. Petersson, H. Nakatsuji, X. Li, M. Caricato, A. V. Marenich, 
 J. Bloino, B. G. Janesko, R. Gomperts, B. Mennucci, H. P. Hratchian, 
 J. V. Ortiz, A. F. Izmaylov, J. L. Sonnenberg, D. Williams-Young, 
 F. Ding, F. Lipparini, F. Egidi, J. Goings, B. Peng, A. Petrone, 
 T. Henderson, D. Ranasinghe, V. G. Zakrzewski, J. Gao, N. Rega, 
 G. Zheng, W. Liang, M. Hada, M. Ehara, K. Toyota, R. Fukuda, 
 J. Hasegawa, M. Ishida, T. Nakajima, Y. Honda, O. Kitao, H. Nakai, 
 T. Vreven, K. Throssell, J. A. Montgomery, Jr., J. E. Peralta, 
 F. Ogliaro, M. J. Bearpark, J. J. Heyd, E. N. Brothers, K. N. Kudin, 
 V. N. Staroverov, T. A. Keith, R. Kobayashi, J. Normand, 
 K. Raghavachari, A. P. Rendell, J. C. Burant, S. S. Iyengar, 
 J. Tomasi, M. Cossi, J. M. Millam, M. Klene, C. Adamo, R. Cammi, 
 J. W. Ochterski, R. L. Martin, K. Morokuma, O. Farkas, 
 J. B. Foresman, and D. J. Fox, Gaussian, Inc., Wallingford CT, 2019.
 
 ******************************************
 Gaussian 16:  ES64L-G16RevC.01  3-Jul-2019
                20-Mar-2025 
 ******************************************
 %chk=CF2O_1000K_step0030.chk
 %mem=8GB
 %nprocshared=4
 Will use up to    4 processors via shared memory.
 -----------------------------------------
 # B3LYP/6-31G(d) pop=full density=current
 -----------------------------------------
 1/30=1,38=1,172=1/1;
 2/12=2,17=6,18=5,40=1/2;
 3/5=1,6=6,7=1,11=2,25=1,30=1,74=-5/1,2,3;
 4//1;
 5/5=2,38=5/2;
 6/7=3,22=-1,28=1/1;
 99/5=1,9=1/99;
 -----------------
 CF2O Time step 30
 -----------------
 Symbolic Z-matrix:
 Charge =  0 Multiplicity = 1
 F                     1.20585  -0.58129   0.04969 
 C                     0.08039   0.07147  -0.06726 
 O                     0.00072   1.3422   -0.07809 
 F                    -1.25723  -0.59386   0.05854 
 
                          Input orientation:                          
 ---------------------------------------------------------------------
 Center     Atomic      Atomic             Coordinates (Angstroms)
 Number     Number       Type             X           Y           Z
 ---------------------------------------------------------------------
      1          9           0        1.205847   -0.581293    0.049685
      2          6           0        0.080390    0.071468   -0.067255
      3          8           0        0.000715    1.342204   -0.078086
      4          9           0       -1.257226   -0.593860    0.058537
 ---------------------------------------------------------------------
                    Distance matrix (angstroms):
                    1          2          3          4
     1  F    0.000000
     2  C    1.306302   0.000000
     3  O    2.273436   1.273277   0.000000
     4  F    2.463121   1.499234   2.312882   0.000000
 Stoichiometry    CF2O
 Framework group  C1[X(CF2O)]
 Deg. of freedom     6
 Full point group                 C1      NOp   1
 Largest Abelian subgroup         C1      NOp   1
 Largest concise Abelian subgroup C1      NOp   1
                         Standard orientation:                         
 ---------------------------------------------------------------------
 Center     Atomic      Atomic             Coordinates (Angstroms)
 Number     Number       Type             X           Y           Z
 ---------------------------------------------------------------------
      1          9           0       -1.160238   -0.684160   -0.015033
      2          6           0       -0.083669    0.051768    0.061353
      3          8           0       -0.092007    1.322676   -0.015828
      4          9           0        1.297802   -0.526064   -0.011800
 ---------------------------------------------------------------------
 Rotational constants (GHZ):          11.9763517           8.7360836           5.0570526
 Standard basis: 6-31G(d) (6D, 7F)
 There are    60 symmetry adapted cartesian basis functions of A   symmetry.
 There are    60 symmetry adapted basis functions of A   symmetry.
    60 basis functions,   112 primitive gaussians,    60 cartesian basis functions
    16 alpha electrons       16 beta electrons
       nuclear repulsion energy       111.5186357924 Hartrees.
 NAtoms=    4 NActive=    4 NUniq=    4 SFac= 1.00D+00 NAtFMM=   60 NAOKFM=F Big=F
 Integral buffers will be    131072 words long.
 Raffenetti 2 integral format.
 Two-electron integral symmetry is turned on.
 One-electron integrals computed using PRISM.
 NBasis=    60 RedAO= T EigKep=  4.43D-03  NBF=    60
 NBsUse=    60 1.00D-06 EigRej= -1.00D+00 NBFU=    60
 ExpMin= 1.69D-01 ExpMax= 7.00D+03 ExpMxC= 1.05D+03 IAcc=3 IRadAn=         5 AccDes= 0.00D+00
 Harris functional with IExCor=  402 and IRadAn=       5 diagonalized for initial guess.
 HarFok:  IExCor=  402 AccDes= 0.00D+00 IRadAn=         5 IDoV= 1 UseB2=F ITyADJ=14
 ICtDFT=  3500011 ScaDFX=  1.000000  1.000000  1.000000  1.000000
 FoFCou: FMM=F IPFlag=           0 FMFlag=      100000 FMFlg1=           0
         NFxFlg=           0 DoJE=T BraDBF=F KetDBF=T FulRan=T
         wScrn=  0.000000 ICntrl=       500 IOpCl=  0 I1Cent=   200000004 NGrid=           0
         NMat0=    1 NMatS0=      1 NMatT0=    0 NMatD0=    1 NMtDS0=    0 NMtDT0=    0
 Petite list used in FoFCou.
 Keep R1 ints in memory in canonical form, NReq=5215649.
 Requested convergence on RMS density matrix=1.00D-08 within 128 cycles.
 Requested convergence on MAX density matrix=1.00D-06.
 Requested convergence on             energy=1.00D-06.
 No special actions if energy rises.
 Integral accuracy reduced to 1.0D-05 until final iterations.
 Initial convergence to 1.0D-05 achieved.  Increase integral accuracy.
 SCF Done:  E(RB3LYP) =  -312.962333020     A.U. after   14 cycles
            NFock= 14  Conv=0.99D-08     -V/T= 2.0093

 **********************************************************************

            Population analysis using the SCF Density.

 **********************************************************************

 Orbital symmetries:
       Occupied  (A) (A) (A) (A) (A) (A) (A) (A) (A) (A) (A) (A)
                 (A) (A) (A) (A)
       Virtual   (A) (A) (A) (A) (A) (A) (A) (A) (A) (A) (A) (A)
                 (A) (A) (A) (A) (A) (A) (A) (A) (A) (A) (A) (A)
                 (A) (A) (A) (A) (A) (A) (A) (A) (A) (A) (A) (A)
                 (A) (A) (A) (A) (A) (A) (A) (A)
 The electronic state is 1-A.
 Alpha  occ. eigenvalues --  -24.82117 -24.74876 -19.20728 -10.47295  -1.33969
 Alpha  occ. eigenvalues --   -1.21360  -1.05978  -0.70076  -0.59944  -0.56701
 Alpha  occ. eigenvalues --   -0.54341  -0.46584  -0.45724  -0.43958  -0.37861
 Alpha  occ. eigenvalues --   -0.33648
 Alpha virt. eigenvalues --   -0.07545  -0.00918   0.19739   0.28559   0.46883
 Alpha virt. eigenvalues --    0.47606   0.49003   0.54609   0.83936   0.93439
 Alpha virt. eigenvalues --    0.93942   1.04024   1.07940   1.11785   1.22015
 Alpha virt. eigenvalues --    1.25913   1.26147   1.33291   1.35548   1.38005
 Alpha virt. eigenvalues --    1.53642   1.60869   1.73144   1.75052   1.77136
 Alpha virt. eigenvalues --    1.78841   1.81772   1.82049   1.84361   1.90387
 Alpha virt. eigenvalues --    1.93353   1.98427   2.09968   2.39227   2.55152
 Alpha virt. eigenvalues --    2.56866   2.66948   2.83960   2.97134   3.02084
 Alpha virt. eigenvalues --    3.68921   4.05109   4.22445   4.59234
     Molecular Orbital Coefficients:
                           1         2         3         4         5
                           O         O         O         O         O
     Eigenvalues --   -24.82117 -24.74876 -19.20728 -10.47295  -1.33969
   1 1   F  1S          0.99297   0.00006   0.00001   0.00005  -0.21520
   2        2S          0.01949   0.00031   0.00009   0.00083   0.48957
   3        2PX         0.00072   0.00003   0.00003   0.00010   0.09419
   4        2PY         0.00043   0.00004  -0.00003   0.00007   0.06139
   5        2PZ         0.00006   0.00000   0.00001   0.00001   0.00695
   6        3S          0.01573  -0.00096  -0.00022  -0.00293   0.42947
   7        3PX        -0.00034  -0.00015  -0.00008  -0.00193   0.04475
   8        3PY        -0.00020  -0.00029   0.00019  -0.00131   0.02786
   9        3PZ        -0.00002  -0.00003  -0.00002  -0.00016   0.00322
  10        4XX        -0.00842   0.00016   0.00011  -0.00032   0.02362
  11        4YY        -0.00823   0.00012  -0.00004   0.00031   0.01375
  12        4ZZ        -0.00808   0.00027   0.00008   0.00074   0.00951
  13        4XY        -0.00027  -0.00010  -0.00001  -0.00074   0.01082
  14        4XZ        -0.00003  -0.00001   0.00000  -0.00010   0.00130
  15        4YZ        -0.00002  -0.00002   0.00001  -0.00006   0.00085
  16 2   C  1S          0.00002   0.00002   0.00003   0.99307  -0.07677
  17        2S          0.00046  -0.00016   0.00064   0.04558   0.14890
  18        2PX        -0.00060   0.00028   0.00003  -0.00094  -0.09526
  19        2PY        -0.00036  -0.00013   0.00015  -0.00151  -0.06613
  20        2PZ        -0.00005  -0.00003  -0.00001  -0.00011  -0.00768
  21        3S         -0.00055  -0.00026  -0.00271  -0.00419   0.02686
  22        3PX         0.00081  -0.00073  -0.00001  -0.00086   0.00789
  23        3PY         0.00059   0.00036  -0.00200  -0.00018   0.00010
  24        3PZ         0.00002   0.00000   0.00013  -0.00003   0.00188
  25        4XX         0.00028   0.00076   0.00002  -0.00783   0.00842
  26        4YY         0.00016   0.00027  -0.00052  -0.00814  -0.00330
  27        4ZZ        -0.00005   0.00010   0.00004  -0.00928  -0.01587
  28        4XY         0.00017  -0.00023  -0.00002   0.00059   0.02146
  29        4XZ         0.00002  -0.00003  -0.00000   0.00005   0.00195
  30        4YZ         0.00001   0.00001   0.00004   0.00003   0.00140
  31 3   O  1S          0.00002   0.00003   0.99286  -0.00016  -0.01686
  32        2S          0.00015   0.00020   0.02580  -0.00013   0.03731
  33        2PX         0.00002   0.00000  -0.00002  -0.00004  -0.00538
  34        2PY        -0.00000  -0.00002  -0.00107  -0.00003  -0.02295
  35        2PZ         0.00000   0.00000   0.00008  -0.00000   0.00068
  36        3S         -0.00057  -0.00068   0.01189   0.00045   0.03128
  37        3PX        -0.00013   0.00011   0.00003   0.00021  -0.00560
  38        3PY         0.00023   0.00031  -0.00105   0.00056  -0.01322
  39        3PZ        -0.00002  -0.00002   0.00006  -0.00004  -0.00020
  40        4XX         0.00005   0.00006  -0.00784  -0.00012  -0.00129
  41        4YY        -0.00005  -0.00002  -0.00755  -0.00013   0.00629
  42        4ZZ         0.00011   0.00016  -0.00786  -0.00005  -0.00039
  43        4XY        -0.00004  -0.00001  -0.00001   0.00003   0.00279
  44        4XZ        -0.00001   0.00001   0.00000  -0.00000  -0.00025
  45        4YZ         0.00001   0.00001  -0.00002   0.00002  -0.00013
  46 4   F  1S          0.00003   0.99303   0.00001  -0.00006  -0.02522
  47        2S          0.00022   0.01957   0.00008  -0.00008   0.05558
  48        2PX        -0.00004  -0.00059  -0.00002  -0.00011  -0.01540
  49        2PY         0.00003   0.00017  -0.00002   0.00002   0.00337
  50        2PZ         0.00000   0.00004   0.00000   0.00001   0.00052
  51        3S         -0.00069   0.01512  -0.00012   0.00086   0.04972
  52        3PX         0.00011   0.00018   0.00009   0.00074  -0.01485
  53        3PY        -0.00015  -0.00004   0.00013  -0.00017   0.00133
  54        3PZ        -0.00001  -0.00001  -0.00002  -0.00003  -0.00001
  55        4XX         0.00010  -0.00824   0.00002  -0.00079   0.00847
  56        4YY         0.00016  -0.00799  -0.00002  -0.00009   0.00006
  57        4ZZ         0.00019  -0.00795   0.00009   0.00004   0.00000
  58        4XY         0.00002   0.00014   0.00003   0.00034  -0.00221
  59        4XZ         0.00000   0.00002   0.00001   0.00005  -0.00031
  60        4YZ        -0.00001  -0.00001   0.00001  -0.00002   0.00005
                           6         7         8         9        10
                           O         O         O         O         O
     Eigenvalues --    -1.21360  -1.05978  -0.70076  -0.59944  -0.56701
   1 1   F  1S          0.04040   0.03515   0.08341   0.01706  -0.00037
   2        2S         -0.09234  -0.08038  -0.17411  -0.02921  -0.00004
   3        2PX        -0.00327   0.00202   0.40677   0.03416  -0.03352
   4        2PY        -0.00771   0.02664   0.22880   0.34720  -0.02945
   5        2PZ        -0.00119  -0.00090   0.03025   0.02610   0.54946
   6        3S         -0.08820  -0.08327  -0.29969  -0.07339   0.00218
   7        3PX         0.00414   0.00556   0.22915   0.00623  -0.02059
   8        3PY        -0.00209   0.02160   0.12518   0.20945  -0.01732
   9        3PZ        -0.00087  -0.00063   0.01684   0.01630   0.35235
  10        4XX         0.00103  -0.00054   0.02331  -0.00660  -0.00238
  11        4YY        -0.00247   0.00284   0.00505   0.01545  -0.00130
  12        4ZZ        -0.00229  -0.00171  -0.00066   0.00158   0.00280
  13        4XY         0.00054   0.00511   0.01434   0.00940  -0.00155
  14        4XZ        -0.00006  -0.00010   0.00216   0.00072   0.02375
  15        4YZ        -0.00011   0.00029   0.00113   0.00166   0.01462
  16 2   C  1S         -0.04320  -0.08735  -0.12045   0.04616  -0.00514
  17        2S          0.08824   0.19078   0.29325  -0.11084   0.01256
  18        2PX         0.09640  -0.00281  -0.10865  -0.33093   0.00277
  19        2PY         0.00017   0.21669  -0.18504   0.05908  -0.00151
  20        2PZ        -0.00340  -0.00948  -0.00403   0.00122   0.27887
  21        3S          0.02525   0.03400   0.16329  -0.09306   0.00570
  22        3PX        -0.00245   0.00009   0.00836  -0.05937  -0.00575
  23        3PY        -0.00642  -0.01115  -0.01912   0.05300  -0.00900
  24        3PZ         0.00094   0.00216   0.00362  -0.00015   0.13740
  25        4XX         0.00267  -0.02511   0.00402   0.00810   0.00051
  26        4YY        -0.00305   0.02254  -0.01216  -0.00262   0.00077
  27        4ZZ        -0.00688  -0.01336  -0.01354   0.00087  -0.00303
  28        4XY        -0.01457  -0.00346   0.01390   0.01306   0.00072
  29        4XZ        -0.00143  -0.00010   0.00106   0.00223  -0.01626
  30        4YZ        -0.00019  -0.00338   0.00173  -0.00051  -0.00929
  31 3   O  1S         -0.02447  -0.19566   0.05600  -0.01568  -0.00193
  32        2S          0.05309   0.43525  -0.12470   0.03896   0.00142
  33        2PX         0.00891  -0.00137  -0.01906  -0.12125   0.00285
  34        2PY        -0.02647  -0.15176  -0.05186   0.03532   0.01214
  35        2PZ         0.00115   0.00931   0.00079  -0.00098   0.12580
  36        3S          0.04878   0.40447  -0.16401   0.02851   0.01968
  37        3PX         0.00672  -0.00193  -0.01471  -0.07036   0.00400
  38        3PY        -0.01185  -0.05753  -0.02894   0.02480   0.00067
  39        3PZ         0.00025   0.00326  -0.00025  -0.00171   0.05760
  40        4XX        -0.00127  -0.00941   0.00089   0.00191  -0.00107
  41        4YY         0.00392   0.01084   0.01104  -0.00268  -0.00213
  42        4ZZ        -0.00108  -0.00538   0.00149   0.00064  -0.00000
  43        4XY        -0.00276   0.00016   0.00368   0.01283  -0.00046
  44        4XZ         0.00015  -0.00000  -0.00031  -0.00079  -0.00085
  45        4YZ        -0.00028  -0.00142  -0.00012   0.00010  -0.01118
  46 4   F  1S         -0.22243   0.04850   0.03628  -0.05791  -0.00006
  47        2S          0.49729  -0.10853  -0.07372   0.11042  -0.00232
  48        2PX        -0.06536  -0.00489  -0.13689   0.35680   0.00452
  49        2PY         0.02491   0.01602   0.01844  -0.16147  -0.00041
  50        2PZ         0.00367  -0.00037   0.00636  -0.02120   0.13313
  51        3S          0.48207  -0.11764  -0.13170   0.23159   0.00646
  52        3PX        -0.04309  -0.00357  -0.08521   0.21243   0.00145
  53        3PY         0.01566   0.01212   0.00627  -0.09917   0.00255
  54        3PZ         0.00243  -0.00052   0.00318  -0.01278   0.08026
  55        4XX         0.02355   0.00054   0.01692  -0.02400  -0.00154
  56        4YY         0.00730   0.00023   0.00040  -0.00862  -0.00085
  57        4ZZ         0.00619  -0.00123   0.00136  -0.00461  -0.00059
  58        4XY        -0.00767  -0.00295  -0.00266   0.00920  -0.00031
  59        4XZ        -0.00125   0.00002  -0.00073   0.00145  -0.00714
  60        4YZ         0.00048   0.00012   0.00004  -0.00068   0.00173
                          11        12        13        14        15
                           O         O         O         O         O
     Eigenvalues --    -0.54341  -0.46584  -0.45724  -0.43958  -0.37861
   1 1   F  1S          0.00566   0.00078  -0.00064  -0.00755  -0.00038
   2        2S         -0.00566   0.00778  -0.00270   0.00164   0.00072
   3        2PX         0.34647  -0.21442   0.01750   0.09291   0.00759
   4        2PY        -0.30801   0.33720  -0.00101   0.10384   0.01760
   5        2PZ         0.01063   0.00242  -0.28906  -0.00153  -0.20544
   6        3S         -0.03568  -0.03084   0.01344   0.09588   0.00299
   7        3PX         0.21136  -0.15016   0.01348   0.07381   0.00759
   8        3PY        -0.20024   0.21617   0.00392   0.06924   0.00889
   9        3PZ         0.00612   0.00038  -0.21036   0.00103  -0.14866
  10        4XX         0.01822  -0.00455  -0.00105  -0.00607   0.00032
  11        4YY        -0.01158   0.01151  -0.00110  -0.00990  -0.00037
  12        4ZZ         0.00114   0.00382  -0.00299  -0.00678  -0.00036
  13        4XY        -0.00723   0.00216   0.00064   0.00175  -0.00012
  14        4XZ         0.00105  -0.00054  -0.00725   0.00013  -0.00247
  15        4YZ        -0.00095   0.00051  -0.00525  -0.00029   0.00136
  16 2   C  1S          0.05426   0.03229  -0.00378   0.02291  -0.00340
  17        2S         -0.14344  -0.09148   0.00889  -0.05962   0.00510
  18        2PX        -0.06099   0.06087  -0.00282   0.01978  -0.00028
  19        2PY        -0.20974  -0.23088   0.00530  -0.10360  -0.00740
  20        2PZ        -0.00350  -0.00064   0.14596  -0.00031   0.25127
  21        3S         -0.12250  -0.02015   0.00485  -0.02405   0.03197
  22        3PX         0.01722  -0.03210   0.01282   0.06551  -0.00132
  23        3PY        -0.10638  -0.01201  -0.00537   0.12053   0.02032
  24        3PZ        -0.00272  -0.00210   0.09601   0.00101   0.09267
  25        4XX        -0.00919   0.03011  -0.00190   0.02380   0.00001
  26        4YY         0.02103  -0.01590   0.00102  -0.01416   0.00072
  27        4ZZ         0.00285   0.00234  -0.00108   0.00049  -0.00134
  28        4XY         0.01523  -0.01581  -0.00221   0.02336   0.00029
  29        4XZ         0.00010   0.00051   0.02440   0.00119  -0.00365
  30        4YZ         0.00148   0.00018   0.00653  -0.00048   0.03577
  31 3   O  1S         -0.09020  -0.05645   0.00034  -0.01944  -0.00039
  32        2S          0.18711   0.12064  -0.00228   0.05183   0.00329
  33        2PX        -0.00952  -0.01909  -0.01223   0.11780   0.00344
  34        2PY         0.28550   0.35782   0.00333   0.19941   0.05902
  35        2PZ        -0.02132  -0.03297   0.14118  -0.01922   0.50203
  36        3S          0.39612   0.22405   0.00625   0.00724  -0.01468
  37        3PX        -0.00864  -0.01112  -0.01366   0.07473   0.00301
  38        3PY         0.11568   0.19272  -0.00117   0.13438   0.04401
  39        3PZ        -0.00742  -0.01976   0.08036  -0.01649   0.34133
  40        4XX        -0.00774   0.00137  -0.00086   0.00788   0.00140
  41        4YY        -0.02541  -0.02129  -0.00087  -0.00857  -0.00378
  42        4ZZ        -0.00330   0.00106   0.00039   0.00392   0.00461
  43        4XY         0.00254  -0.00131   0.00154  -0.00615  -0.00033
  44        4XZ        -0.00029   0.00028   0.00213   0.00036  -0.00096
  45        4YZ         0.00187   0.00244  -0.00969   0.00168  -0.03009
  46 4   F  1S         -0.01070   0.00982   0.00004   0.00001  -0.00029
  47        2S          0.02487  -0.02142   0.00132   0.00636   0.00035
  48        2PX         0.07672  -0.33275   0.02963   0.19674  -0.01277
  49        2PY        -0.16614  -0.07107  -0.04258   0.56940   0.01934
  50        2PZ        -0.01232   0.02804   0.56043   0.03954  -0.31070
  51        3S          0.02486  -0.01865  -0.00564  -0.01272   0.00228
  52        3PX         0.05493  -0.22768   0.02100   0.13468  -0.01037
  53        3PY        -0.10728  -0.04637  -0.03037   0.37707   0.01088
  54        3PZ        -0.00925   0.02037   0.38488   0.02710  -0.22185
  55        4XX        -0.00218   0.01249  -0.00067  -0.00597   0.00062
  56        4YY        -0.00113  -0.00539  -0.00018   0.01027  -0.00032
  57        4ZZ         0.00086  -0.00193   0.00251   0.00323  -0.00073
  58        4XY         0.00859   0.00117   0.00162  -0.01125   0.00009
  59        4XZ         0.00079  -0.00154  -0.01859  -0.00080   0.00530
  60        4YZ        -0.00060  -0.00010   0.00668   0.00112   0.00072
                          16        17        18        19        20
                           O         V         V         V         V
     Eigenvalues --    -0.33648  -0.07545  -0.00918   0.19739   0.28559
   1 1   F  1S         -0.01007   0.01953   0.04604   0.07273  -0.03777
   2        2S          0.01799  -0.03994  -0.09985  -0.15335   0.08513
   3        2PX         0.02498  -0.10448  -0.26939  -0.14084   0.19100
   4        2PY         0.15082  -0.02764  -0.04952  -0.26644  -0.08381
   5        2PZ         0.00426  -0.21661   0.08094  -0.01457   0.03369
   6        3S          0.08131  -0.15055  -0.35886  -0.71017   0.43944
   7        3PX         0.02582  -0.10717  -0.27806  -0.27481   0.26550
   8        3PY         0.11588  -0.03923  -0.08759  -0.36913  -0.08036
   9        3PZ         0.00469  -0.18053   0.06498  -0.01895   0.03563
  10        4XX        -0.00472   0.00312   0.01323  -0.01098  -0.01775
  11        4YY        -0.00181  -0.00017  -0.00516   0.02149  -0.00120
  12        4ZZ        -0.00203   0.00746   0.00964   0.01529   0.01108
  13        4XY         0.00418  -0.00229  -0.00393   0.00688   0.00090
  14        4XZ        -0.00023   0.01337  -0.00761  -0.00223  -0.00544
  15        4YZ         0.00037   0.00640  -0.00524   0.00231   0.00038
  16 2   C  1S         -0.00264  -0.06431  -0.13707  -0.04966  -0.04241
  17        2S          0.00962   0.12521   0.28138  -0.02672  -0.01601
  18        2PX         0.07599   0.05460   0.20769  -0.71174   0.23064
  19        2PY         0.00703  -0.10676  -0.29898   0.08402   0.40731
  20        2PZ        -0.00195   0.56205  -0.27258  -0.04083  -0.01489
  21        3S         -0.02688   0.47324   1.04275   1.06017   1.33980
  22        3PX         0.10901   0.00555   0.06357  -0.85438   0.32254
  23        3PY        -0.00837  -0.04362  -0.14582   0.24700   1.81967
  24        3PZ         0.00097   0.38321  -0.21974  -0.07212  -0.08034
  25        4XX        -0.00535  -0.01620  -0.03837   0.00600   0.02079
  26        4YY         0.00217  -0.01093  -0.01326  -0.02222  -0.03176
  27        4ZZ        -0.00032   0.01188   0.02168   0.01399   0.01773
  28        4XY         0.04002  -0.00265  -0.00580  -0.01836   0.01538
  29        4XZ        -0.00053   0.00074   0.00031  -0.00789   0.00240
  30        4YZ         0.00017  -0.02230   0.00786   0.00248   0.00674
  31 3   O  1S         -0.00137   0.01176   0.02649   0.04193   0.10630
  32        2S          0.00497  -0.02393  -0.05278  -0.08174  -0.16248
  33        2PX         0.61358  -0.01836  -0.07100   0.26353  -0.08374
  34        2PY        -0.01724   0.05493   0.15385   0.13894   0.24246
  35        2PZ         0.00278  -0.38437   0.15093   0.00709  -0.02761
  36        3S          0.01013  -0.10585  -0.25138  -0.55966  -1.80183
  37        3PX         0.40092  -0.01551  -0.06671   0.33130  -0.12354
  38        3PY        -0.01435   0.07372   0.20964   0.34305   0.90363
  39        3PZ         0.00210  -0.35447   0.14496  -0.00048  -0.06365
  40        4XX        -0.00167   0.00203   0.00380   0.00934   0.03907
  41        4YY         0.00223  -0.00258  -0.00327  -0.00612  -0.00105
  42        4ZZ         0.00087   0.00640   0.01312   0.01576   0.04478
  43        4XY        -0.02608  -0.00075  -0.00394   0.02496  -0.01060
  44        4XZ         0.00192   0.00067   0.00014  -0.00384   0.00165
  45        4YZ        -0.00013  -0.00335   0.00595   0.00282   0.00204
  46 4   F  1S          0.00906   0.01947   0.05332  -0.03463   0.00948
  47        2S         -0.01860  -0.04298  -0.12384   0.07811  -0.00690
  48        2PX         0.09794   0.14302   0.37000  -0.15753  -0.04275
  49        2PY        -0.22865  -0.03184  -0.08148   0.10119  -0.20385
  50        2PZ        -0.00322  -0.17359   0.05117   0.03587   0.00735
  51        3S         -0.06424  -0.12339  -0.33844   0.27600  -0.08645
  52        3PX         0.08568   0.13885   0.36408  -0.16138  -0.01472
  53        3PY        -0.16340  -0.03679  -0.10113   0.09496  -0.23905
  54        3PZ        -0.00426  -0.13806   0.03855   0.02743   0.00742
  55        4XX        -0.00346  -0.00030   0.00555  -0.01477  -0.00395
  56        4YY         0.00293  -0.00025  -0.00417  -0.00587   0.00888
  57        4ZZ         0.00120   0.00438   0.00371   0.00714   0.01490
  58        4XY         0.00543   0.00159   0.00167   0.01611  -0.01429
  59        4XZ         0.00037  -0.01140   0.00599   0.00488   0.00198
  60        4YZ        -0.00044   0.00284  -0.00204  -0.00270   0.00301
                          21        22        23        24        25
                           V         V         V         V         V
     Eigenvalues --     0.46883   0.47606   0.49003   0.54609   0.83936
   1 1   F  1S          0.02170  -0.01022  -0.01546  -0.00131   0.00290
   2        2S         -0.00222   0.00252   0.01081  -0.01706   0.06498
   3        2PX         0.25186  -0.08176  -0.09352   0.01159  -0.07265
   4        2PY         0.19190  -0.05413   0.08827   0.00433   0.10154
   5        2PZ        -0.01663  -0.10840   0.02990   0.01361  -0.01346
   6        3S         -0.80388   0.32037   0.33379   0.08526  -0.12967
   7        3PX        -0.21046   0.08274  -0.01408  -0.02984   0.01045
   8        3PY        -0.13173   0.07353   0.19524  -0.09650  -0.06819
   9        3PZ        -0.05333  -0.11451   0.02323   0.00431   0.00502
  10        4XX        -0.09278   0.03072  -0.02269   0.01735   0.04702
  11        4YY        -0.00831   0.00744   0.02817  -0.04534   0.00457
  12        4ZZ         0.06123  -0.02699  -0.00735   0.00443   0.01371
  13        4XY        -0.10964   0.04337   0.02976  -0.02835  -0.01682
  14        4XZ        -0.02374  -0.02904   0.00239   0.00210   0.00458
  15        4YZ        -0.01636  -0.02329   0.00177  -0.00114  -0.00068
  16 2   C  1S          0.03142  -0.00704  -0.01745   0.04712   0.03488
  17        2S         -0.87072   0.16509  -0.40629  -1.05631   0.41540
  18        2PX         0.43606  -0.18218  -0.55889  -0.14252  -0.01866
  19        2PY         0.46992  -0.09915   0.49913  -0.65136   0.25957
  20        2PZ        -0.26444  -0.89668   0.08368   0.02537  -0.02014
  21        3S          1.31660  -0.33740   0.70368   1.69867  -0.02456
  22        3PX        -0.99558   0.46194   1.67999   0.38081   0.00067
  23        3PY        -0.85927   0.19499  -0.74761   1.11517  -0.08319
  24        3PZ         0.33558   1.28321  -0.14764  -0.07252   0.00187
  25        4XX         0.04649  -0.02334   0.00870  -0.07961  -0.02469
  26        4YY        -0.02911  -0.01303  -0.08514   0.11881   0.25670
  27        4ZZ        -0.04518   0.01590   0.00041  -0.07693  -0.05363
  28        4XY         0.08657  -0.03223  -0.03734  -0.00372  -0.00623
  29        4XZ         0.00800   0.00381   0.00207   0.00069   0.00165
  30        4YZ         0.00512  -0.00691   0.00361  -0.01118  -0.02051
  31 3   O  1S          0.00426  -0.00176   0.00959  -0.00534   0.00777
  32        2S         -0.06968   0.00474  -0.07944   0.05952  -0.53651
  33        2PX         0.05077  -0.03117  -0.16122  -0.03088   0.04867
  34        2PY         0.00962   0.00813   0.10811  -0.44419  -0.66492
  35        2PZ        -0.01959  -0.11077   0.01683   0.02558   0.02982
  36        3S          0.18292   0.02916   0.22840  -0.89620   0.73711
  37        3PX         0.15286  -0.07166  -0.27510  -0.06505  -0.05184
  38        3PY         0.09376  -0.05435   0.05452   0.26413   1.16722
  39        3PZ        -0.04225  -0.15895   0.02033  -0.01260  -0.05866
  40        4XX        -0.01687  -0.00194  -0.03230   0.04956  -0.20327
  41        4YY        -0.02022   0.01623   0.03096  -0.17583  -0.21327
  42        4ZZ        -0.01391  -0.00805  -0.01820   0.06940  -0.19630
  43        4XY        -0.03071   0.01235   0.03331   0.01055   0.00277
  44        4XZ         0.00038   0.00005   0.00153   0.00018  -0.00017
  45        4YZ         0.01331   0.04691  -0.00903   0.01753   0.00032
  46 4   F  1S         -0.00205   0.00264   0.04324   0.00885   0.00252
  47        2S         -0.07113   0.00993  -0.10840  -0.08249   0.11935
  48        2PX         0.01484  -0.02288  -0.14077  -0.08782   0.05025
  49        2PY         0.07123  -0.01877   0.06573  -0.02029   0.10998
  50        2PZ        -0.02402  -0.12086   0.00788   0.00769  -0.01024
  51        3S          0.14625  -0.08027  -0.77484  -0.11735  -0.20066
  52        3PX         0.07883  -0.00799   0.37395   0.11421  -0.04155
  53        3PY         0.09622  -0.03525  -0.16048  -0.16336  -0.05410
  54        3PZ        -0.02954  -0.11239  -0.01292  -0.00196   0.00649
  55        4XX        -0.06920   0.01019  -0.11851  -0.06114   0.08180
  56        4YY        -0.01084   0.00203   0.00506  -0.04699   0.02652
  57        4ZZ        -0.02261   0.00503   0.03498  -0.00364   0.03887
  58        4XY        -0.00278   0.00345   0.06011   0.06041   0.02592
  59        4XZ         0.00742   0.01615   0.00747   0.00267  -0.00526
  60        4YZ        -0.00328  -0.00915  -0.00160  -0.00195  -0.00093
                          26        27        28        29        30
                           V         V         V         V         V
     Eigenvalues --     0.93439   0.93942   1.04024   1.07940   1.11785
   1 1   F  1S          0.00036  -0.01391  -0.03790   0.00783   0.01497
   2        2S          0.04178  -0.56150  -0.79122   0.14830   0.28678
   3        2PX        -0.04124   0.17364   0.46641   0.00754  -0.04005
   4        2PY         0.00495   0.23446   0.12041  -0.11779  -0.41289
   5        2PZ         0.18143  -0.02649   0.08148  -0.57193   0.23881
   6        3S         -0.05350   0.80224   1.63538  -0.34123  -0.72214
   7        3PX         0.05157  -0.28860  -0.67359   0.04119   0.18112
   8        3PY         0.00726  -0.35361  -0.23727   0.13489   0.50078
   9        3PZ        -0.11793   0.01720  -0.09619   0.61165  -0.26151
  10        4XX         0.02501  -0.24729  -0.36054   0.06905   0.12663
  11        4YY         0.01940  -0.29481  -0.34409   0.06458   0.12481
  12        4ZZ         0.00988  -0.21327  -0.41868   0.07456   0.16096
  13        4XY        -0.00538  -0.00759   0.02243  -0.01583  -0.04959
  14        4XZ        -0.02691   0.00125   0.00246   0.03104  -0.01452
  15        4YZ         0.02757   0.01304  -0.00879   0.06827  -0.02476
  16 2   C  1S         -0.00272   0.01045   0.02500   0.00366   0.00290
  17        2S         -0.02210   0.13097   0.42799   0.08785   0.05277
  18        2PX         0.01072  -0.10686  -0.12208   0.11498   0.26291
  19        2PY         0.01189  -0.05374  -0.14969  -0.00162   0.04570
  20        2PZ         0.06562  -0.00041  -0.01465  -0.02080   0.01477
  21        3S          0.05378  -0.10261  -0.53701  -0.22046  -0.14847
  22        3PX         0.08241  -0.52623   0.26255  -0.31731  -0.74516
  23        3PY         0.01415  -0.02785   0.08289  -0.02519  -0.04013
  24        3PZ        -0.41276  -0.06339   0.01496  -0.04797   0.00462
  25        4XX        -0.00612   0.05576   0.21673   0.03090  -0.00407
  26        4YY        -0.00541   0.02585   0.06880   0.01144   0.03838
  27        4ZZ         0.00520  -0.01533  -0.11897  -0.03269  -0.04052
  28        4XY        -0.00579   0.04267   0.11576  -0.06038  -0.20968
  29        4XZ        -0.01420  -0.01685   0.05381  -0.23938   0.09567
  30        4YZ         0.01083   0.00298  -0.00635   0.01329  -0.02166
  31 3   O  1S          0.00186  -0.00107  -0.00270  -0.00190   0.00129
  32        2S          0.02204  -0.01585   0.01932  -0.00397   0.07686
  33        2PX         0.11914  -0.75977   0.21765  -0.07924  -0.37535
  34        2PY        -0.03582  -0.04790  -0.04156  -0.02518  -0.05629
  35        2PZ        -0.91056  -0.13786   0.00833  -0.04160   0.00121
  36        3S         -0.08055   0.06624   0.06923   0.07795  -0.09697
  37        3PX        -0.16116   1.03192  -0.37689   0.19055   0.75978
  38        3PY         0.06279   0.05961   0.04769   0.01796   0.12300
  39        3PZ         1.16442   0.17810  -0.01431   0.06532  -0.00004
  40        4XX         0.00462  -0.00133   0.03300   0.00942   0.02712
  41        4YY         0.01194  -0.00967   0.00243   0.00740   0.03898
  42        4ZZ         0.01038  -0.01606  -0.05242  -0.02955  -0.02011
  43        4XY        -0.00341   0.02561  -0.03942   0.01168   0.14784
  44        4XZ        -0.00049  -0.00982   0.01743  -0.08319   0.02740
  45        4YZ         0.02378   0.00488  -0.00224   0.00579  -0.00010
  46 4   F  1S         -0.00125   0.00506  -0.03549  -0.03408  -0.04099
  47        2S         -0.05898   0.29643  -0.79803  -0.63606  -0.72520
  48        2PX         0.00571   0.04536  -0.34570  -0.19885  -0.24967
  49        2PY         0.06702  -0.22410   0.01334   0.08853   0.23940
  50        2PZ         0.10169   0.06131  -0.11158   0.52664  -0.25350
  51        3S          0.06789  -0.34469   1.50813   1.34978   1.64601
  52        3PX         0.01264  -0.11741   0.37557   0.20097   0.25211
  53        3PY        -0.07347   0.25681  -0.04649  -0.06997  -0.20614
  54        3PZ        -0.04700  -0.04078   0.10603  -0.53661   0.27676
  55        4XX        -0.02079   0.12232  -0.36001  -0.25525  -0.25424
  56        4YY        -0.03702   0.17759  -0.34634  -0.28361  -0.34375
  57        4ZZ        -0.02284   0.09048  -0.35872  -0.31508  -0.36652
  58        4XY         0.01171  -0.02640  -0.02865  -0.01805  -0.00976
  59        4XZ         0.02060   0.01017  -0.02272   0.07241  -0.04262
  60        4YZ         0.02701  -0.00112   0.01378  -0.04648   0.01757
                          31        32        33        34        35
                           V         V         V         V         V
     Eigenvalues --     1.22015   1.25913   1.26147   1.33291   1.35548
   1 1   F  1S         -0.01459  -0.01032  -0.00178  -0.02508  -0.01324
   2        2S         -0.16896  -0.02846  -0.08667  -0.33943  -0.17040
   3        2PX        -0.35865   0.36523  -0.02558   0.03127  -0.00087
   4        2PY         0.34934  -0.22104  -0.17648  -0.36867  -0.08592
   5        2PZ        -0.10585  -0.24796  -0.48271   0.26491  -0.17767
   6        3S          0.43085   0.22991   0.11425   0.80488   0.41215
   7        3PX         0.57156  -0.48989   0.03775   0.01662   0.03673
   8        3PY        -0.38502   0.31222   0.28825   0.67412   0.18502
   9        3PZ         0.14534   0.35456   0.69145  -0.44052   0.38173
  10        4XX        -0.19377   0.05202  -0.03783  -0.12354  -0.01243
  11        4YY         0.15367  -0.01687  -0.03877  -0.03211  -0.03281
  12        4ZZ        -0.16892  -0.14160   0.01003  -0.26443  -0.16721
  13        4XY         0.01224   0.01259  -0.04275  -0.12091  -0.04739
  14        4XZ         0.00049  -0.01967   0.01429   0.15076  -0.37558
  15        4YZ        -0.01799  -0.03814  -0.07156   0.07006  -0.17956
  16 2   C  1S         -0.01226  -0.00341  -0.00560  -0.00905  -0.00315
  17        2S          0.04910  -0.01449  -0.05921   0.01882   0.00011
  18        2PX         0.11730  -0.12610  -0.00449  -0.05375  -0.00067
  19        2PY        -0.16337  -0.04935   0.07721   0.03196   0.03256
  20        2PZ         0.03891   0.05363   0.13541  -0.05465   0.02175
  21        3S         -1.84406  -0.58274  -0.00396  -1.73585  -0.42683
  22        3PX        -0.35608   0.31582   0.07994   0.13466   0.07310
  23        3PY        -0.61200  -0.26700  -0.27263  -1.13164  -0.22483
  24        3PZ        -0.05743  -0.21821  -0.62895   0.39186  -0.04209
  25        4XX         0.19762   0.04048  -0.04786   0.08327  -0.03124
  26        4YY        -0.17726  -0.03674   0.01279  -0.00259   0.06635
  27        4ZZ        -0.10608  -0.04463  -0.00869  -0.23747  -0.08037
  28        4XY        -0.10871   0.05710  -0.01007  -0.05687  -0.09508
  29        4XZ         0.03235   0.06212   0.07175  -0.08035   0.33498
  30        4YZ        -0.02706  -0.04100  -0.25139  -0.09812   0.44797
  31 3   O  1S         -0.06309  -0.02299  -0.00032  -0.05408  -0.01016
  32        2S         -1.01723  -0.40729   0.06823  -0.70554  -0.13236
  33        2PX        -0.01279  -0.07532   0.06673   0.05819   0.04099
  34        2PY         0.20948   0.10675  -0.05424   0.09387   0.02056
  35        2PZ        -0.02841  -0.05657  -0.13307   0.04495  -0.07741
  36        3S          2.89723   1.10142  -0.00292   2.51232   0.49032
  37        3PX         0.14267   0.02859  -0.11343  -0.09293  -0.03695
  38        3PY        -1.13097  -0.43131   0.11340  -0.77352  -0.15137
  39        3PZ         0.12459   0.16967   0.44309  -0.06926  -0.05072
  40        4XX        -0.19063  -0.08083   0.05042  -0.00406   0.00878
  41        4YY        -0.36934  -0.15555   0.06385  -0.21593  -0.06461
  42        4ZZ        -0.29300  -0.10078  -0.07560  -0.40066  -0.06184
  43        4XY         0.03903   0.02564  -0.02464   0.00167   0.05477
  44        4XZ         0.00410   0.01476   0.01945  -0.02736   0.10101
  45        4YZ         0.02500   0.04992   0.19249   0.01443  -0.29406
  46 4   F  1S         -0.02703   0.00639   0.00235  -0.01686  -0.00470
  47        2S         -0.38799   0.01088   0.03027  -0.35725  -0.10618
  48        2PX        -0.06387   0.50209  -0.06903   0.26493   0.04736
  49        2PY         0.08767   0.47154  -0.40433  -0.41605  -0.19377
  50        2PZ        -0.17292  -0.13766  -0.46272   0.23847   0.07104
  51        3S          1.03744  -0.11913  -0.12600   0.71682   0.20215
  52        3PX         0.00549  -0.61129   0.10125  -0.35917  -0.06201
  53        3PY        -0.02771  -0.57335   0.52216   0.64851   0.28057
  54        3PZ         0.21420   0.18572   0.62152  -0.34625  -0.09850
  55        4XX        -0.12942  -0.10169   0.01358  -0.16790  -0.00085
  56        4YY        -0.07776   0.13067  -0.01341  -0.05795  -0.07862
  57        4ZZ        -0.30535   0.03705   0.04180  -0.18375  -0.04287
  58        4XY        -0.06163  -0.03518   0.06206   0.10417   0.09903
  59        4XZ        -0.01890  -0.00968  -0.01661  -0.05504  -0.04543
  60        4YZ        -0.00246  -0.00185  -0.02341  -0.01253   0.11279
                          36        37        38        39        40
                           V         V         V         V         V
     Eigenvalues --     1.38005   1.53642   1.60869   1.73144   1.75052
   1 1   F  1S         -0.00296   0.00557  -0.00297   0.01646   0.00025
   2        2S         -0.05596  -0.28652   0.40029   0.35972  -0.03390
   3        2PX        -0.00370  -0.18033   0.33186   0.18859  -0.01719
   4        2PY        -0.05365  -0.24098   0.12055  -0.16208   0.00326
   5        2PZ         0.00210   0.01400   0.02276   0.03680  -0.00197
   6        3S          0.11823   0.36906  -0.56031  -0.84679   0.06141
   7        3PX         0.00488   0.09420  -0.38181  -0.39407   0.02648
   8        3PY         0.10381   0.42218   0.05092   0.31344  -0.00434
   9        3PZ        -0.03111  -0.02912  -0.03087  -0.06645   0.00529
  10        4XX         0.03650   0.18218   0.41053  -0.22419   0.11668
  11        4YY        -0.06451  -0.42500   0.04274  -0.09071  -0.01037
  12        4ZZ        -0.03394   0.03646  -0.11311   0.65687  -0.12456
  13        4XY        -0.05048  -0.13806  -0.08977   0.49080  -0.11459
  14        4XZ        -0.01459   0.00884   0.10336  -0.16155  -0.51562
  15        4YZ         0.22060  -0.09974  -0.05324   0.06474   0.73949
  16 2   C  1S         -0.00289  -0.01823   0.00120   0.02752  -0.00347
  17        2S          0.00580   0.15669   0.02971   0.04906   0.00349
  18        2PX        -0.02954  -0.00197   0.06444  -0.00304  -0.00698
  19        2PY         0.02269  -0.01500   0.11164  -0.07178   0.01565
  20        2PZ        -0.02704  -0.00007   0.00560   0.01719   0.02423
  21        3S         -0.24584  -1.28381  -0.56292  -1.15424   0.02835
  22        3PX        -0.02041  -0.07437   0.18745  -0.05097   0.01834
  23        3PY        -0.10347  -0.90042  -0.75108  -1.56371   0.04567
  24        3PZ        -0.07233   0.08386   0.02800   0.07149  -0.01007
  25        4XX        -0.03103  -0.15836  -0.23997   0.17738  -0.01537
  26        4YY         0.04737  -0.00502   0.13259  -0.38204   0.02617
  27        4ZZ        -0.05129   0.12217   0.17080   0.27434  -0.01386
  28        4XY         0.02985   0.37904  -0.22280   0.00463   0.00606
  29        4XZ        -0.45839   0.05107  -0.03804  -0.00942   0.02273
  30        4YZ         0.34945   0.02386  -0.03100   0.05408  -0.03310
  31 3   O  1S         -0.00484  -0.03552  -0.01564  -0.04405   0.00272
  32        2S         -0.08588  -0.69336  -0.65805  -0.55770  -0.01641
  33        2PX         0.00045  -0.08538   0.05005   0.00558  -0.00236
  34        2PY         0.02344   0.15768   0.28699  -0.16081   0.03368
  35        2PZ        -0.05074  -0.01646  -0.01510  -0.00335   0.04939
  36        3S          0.27365   2.11502   1.60719   2.37446  -0.03548
  37        3PX        -0.01472   0.03165  -0.05364   0.00785  -0.00202
  38        3PY        -0.09670  -0.73670  -0.62793  -0.65841  -0.00861
  39        3PZ        -0.03812   0.04131   0.04906   0.06103  -0.05657
  40        4XX         0.00353  -0.17463  -0.41147  -0.03671  -0.06935
  41        4YY        -0.04443  -0.22137  -0.23563  -0.26296   0.01853
  42        4ZZ        -0.02685  -0.08634   0.25208  -0.00345   0.05062
  43        4XY        -0.04772  -0.30799   0.20320  -0.04484  -0.03916
  44        4XZ        -0.14718   0.08534  -0.06309  -0.07049  -0.10620
  45        4YZ        -0.22627  -0.01479   0.07567   0.00081   0.20008
  46 4   F  1S         -0.00869  -0.02504   0.01843   0.01676  -0.00271
  47        2S         -0.12686   0.23861   0.31066   0.05540   0.05008
  48        2PX         0.05053  -0.33805  -0.15608  -0.01227  -0.03254
  49        2PY        -0.05462   0.08573  -0.06470  -0.12480   0.01001
  50        2PZ        -0.39034   0.03771   0.00955   0.01087  -0.02347
  51        3S          0.28297  -0.12317  -0.69816  -0.24619  -0.06166
  52        3PX        -0.08806   0.28194   0.29843   0.12066   0.03810
  53        3PY         0.09291   0.02718   0.15084   0.30935  -0.01901
  54        3PZ         0.57317  -0.05216  -0.01687  -0.02667   0.02164
  55        4XX        -0.03751  -0.08095   0.42695   0.19266  -0.01160
  56        4YY        -0.02545   0.29075  -0.14389  -0.04962   0.03872
  57        4ZZ        -0.09874  -0.14770   0.08042   0.02122  -0.01556
  58        4XY         0.02431  -0.06764   0.24280   0.04399   0.01711
  59        4XZ         0.38519  -0.02391  -0.00114  -0.04436  -0.29510
  60        4YZ        -0.13378   0.01526  -0.08647  -0.07057   0.05092
                          41        42        43        44        45
                           V         V         V         V         V
     Eigenvalues --     1.77136   1.78841   1.81772   1.82049   1.84361
   1 1   F  1S          0.00180  -0.00990  -0.02732  -0.03479  -0.01632
   2        2S          0.02630   0.02727  -0.54611  -0.77236  -0.00315
   3        2PX        -0.05167  -0.07009  -0.03001  -0.07675  -0.01898
   4        2PY         0.08041   0.18515  -0.07630  -0.07570   0.19353
   5        2PZ         0.04486  -0.00276  -0.00831   0.01439   0.00059
   6        3S         -0.07673   0.02996   1.33043   1.83874   0.22106
   7        3PX         0.11275   0.26459   0.22677   0.37890   0.15738
   8        3PY        -0.16645  -0.35440   0.26557   0.29839  -0.20778
   9        3PZ        -0.05725  -0.00043   0.02017  -0.01163   0.00180
  10        4XX         0.06858  -0.09291  -0.30800  -0.41926   0.25316
  11        4YY        -0.08373  -0.16861  -0.13336  -0.10084  -0.55663
  12        4ZZ         0.04834   0.21888  -0.04536  -0.13603   0.21937
  13        4XY         0.02418   0.15696  -0.11923  -0.19263  -0.01733
  14        4XZ        -0.09407   0.04201   0.06617  -0.03672  -0.00565
  15        4YZ        -0.27940   0.08497   0.01807  -0.02617   0.07603
  16 2   C  1S         -0.00239  -0.00078   0.01700   0.02185  -0.00042
  17        2S          0.08818   0.29691   0.19699   0.30068   0.16753
  18        2PX         0.03051   0.12964   0.01549   0.03619   0.08791
  19        2PY        -0.00221  -0.01406  -0.04955  -0.09295   0.08086
  20        2PZ         0.02991  -0.02055  -0.01555  -0.01269  -0.00944
  21        3S         -0.04939  -0.54131  -1.16068  -1.52990  -0.61488
  22        3PX        -0.37154  -0.95828   0.30140   0.28016  -0.20465
  23        3PY         0.37365   0.87665  -0.10253   0.07789   0.14817
  24        3PZ        -0.00736   0.03508   0.07045   0.09808   0.03590
  25        4XX        -0.10727  -0.29782  -0.02087  -0.08045  -0.17709
  26        4YY         0.08392   0.19302  -0.10934  -0.11425   0.09831
  27        4ZZ        -0.00954   0.01631   0.15010   0.20850   0.06715
  28        4XY         0.03182   0.06115  -0.05513  -0.05664  -0.03604
  29        4XZ         0.01601   0.02695   0.00085  -0.02180   0.00235
  30        4YZ        -0.03073  -0.02925   0.01492   0.00873  -0.01999
  31 3   O  1S          0.00673   0.01258  -0.01443  -0.01771   0.00831
  32        2S          0.07794   0.09090  -0.16758  -0.13615  -0.28589
  33        2PX        -0.00593  -0.02987   0.02340   0.01349   0.06242
  34        2PY         0.04516   0.12404  -0.05449  -0.08043   0.17411
  35        2PZ        -0.01237   0.01314   0.03676  -0.01389   0.00653
  36        3S         -0.37543  -0.61221   0.72942   0.70816   0.40225
  37        3PX         0.08489   0.23515  -0.09111  -0.07482  -0.03739
  38        3PY         0.08549   0.09147  -0.23401  -0.22620  -0.24677
  39        3PZ         0.00572  -0.04958  -0.04433   0.01896  -0.01564
  40        4XX         0.02156  -0.17839  -0.31215  -0.37876   0.40543
  41        4YY         0.05162   0.09370  -0.06190  -0.05449  -0.08026
  42        4ZZ        -0.03992   0.11816   0.28413   0.33614  -0.39187
  43        4XY        -0.01945   0.03103   0.00780  -0.00736   0.36207
  44        4XZ        -0.85082   0.25140  -0.24288   0.12548   0.05834
  45        4YZ        -0.03494   0.02630   0.07231  -0.06262   0.01168
  46 4   F  1S         -0.02760  -0.06888  -0.00750  -0.02034  -0.02664
  47        2S         -0.34137  -1.04342  -0.18806  -0.36536  -0.26549
  48        2PX         0.04670   0.18422   0.04899   0.07657   0.00688
  49        2PY         0.00587  -0.00568  -0.02896  -0.02812   0.00521
  50        2PZ        -0.03345  -0.01095  -0.00408   0.01863  -0.00099
  51        3S          0.88977   2.57148   0.39064   0.83342   0.75687
  52        3PX        -0.21333  -0.66266  -0.14121  -0.26286  -0.15821
  53        3PY         0.02939   0.12864   0.05805   0.06963   0.04136
  54        3PZ         0.04817   0.03891  -0.00159  -0.02949   0.00647
  55        4XX        -0.28366  -0.55377  -0.19025  -0.41226  -0.35415
  56        4YY         0.01245  -0.05445  -0.15085  -0.29148  -0.37027
  57        4ZZ        -0.13759  -0.51805   0.17343   0.33798   0.37910
  58        4XY         0.09494   0.57034  -0.05521  -0.15032  -0.16072
  59        4XZ        -0.25597   0.02406   0.22414  -0.13177   0.03479
  60        4YZ        -0.14830   0.03463   0.75124  -0.51476   0.05370
                          46        47        48        49        50
                           V         V         V         V         V
     Eigenvalues --     1.90387   1.93353   1.98427   2.09968   2.39227
   1 1   F  1S         -0.06651  -0.03983  -0.03324  -0.01298  -0.00179
   2        2S         -1.00195  -0.69642  -0.29350   0.03591   0.10757
   3        2PX         0.02891  -0.01543   0.11629   0.14668  -0.00467
   4        2PY         0.01223   0.01199   0.02704   0.02502   0.06117
   5        2PZ        -0.04447  -0.01758   0.12891  -0.11017   0.06805
   6        3S          2.80216   1.85551   1.03025   0.15191  -0.21346
   7        3PX         0.34000   0.32373   0.06723  -0.13426   0.03610
   8        3PY         0.28152   0.13421   0.18717   0.10474  -0.17230
   9        3PZ         0.11212   0.05372  -0.24444   0.26412  -0.21374
  10        4XX        -0.44730  -0.48002  -0.18491  -0.11776   0.13750
  11        4YY        -0.66781  -0.06773   0.09285   0.22527  -0.07757
  12        4ZZ         0.15586  -0.06506  -0.23115  -0.12937  -0.03809
  13        4XY        -0.18021  -0.08687  -0.17036  -0.15032  -0.08466
  14        4XZ         0.02864   0.00725  -0.37655   0.37447  -0.19751
  15        4YZ         0.00721   0.01499  -0.16782   0.19241  -0.40629
  16 2   C  1S          0.00468  -0.00507   0.03645   0.03055   0.03197
  17        2S         -0.13617   0.12221   0.21937   0.14080  -0.00394
  18        2PX        -0.17129  -0.04595   0.07367   0.11075  -0.18451
  19        2PY         0.06755   0.03744  -0.11487  -0.10700   0.08665
  20        2PZ        -0.02961  -0.01638   0.17920  -0.18589   0.14230
  21        3S          0.10730  -0.23119  -0.94336  -0.38532  -0.14955
  22        3PX         1.75898   0.65195   0.46366   0.28298  -0.39023
  23        3PY         0.87978   0.96410  -0.10800  -0.31177   0.16791
  24        3PZ        -0.03586   0.00726   0.39545  -0.34389   0.13256
  25        4XX        -0.00114  -0.24930  -0.16732  -0.14273   0.05972
  26        4YY         0.17298   0.23157  -0.23227  -0.30843  -0.04898
  27        4ZZ        -0.10840   0.03472   0.56577   0.65128   0.12729
  28        4XY        -0.37953  -0.12257  -0.10995  -0.03460  -0.02644
  29        4XZ        -0.05671  -0.01379   0.00076  -0.05974  -0.69615
  30        4YZ        -0.01958  -0.03006  -0.04110   0.07849   0.42181
  31 3   O  1S          0.01576   0.02128  -0.01818  -0.01205  -0.00070
  32        2S          0.17838   0.00364  -0.01264   0.06472   0.12385
  33        2PX         0.23031  -0.07906   0.06264   0.03536  -0.02274
  34        2PY         0.07785   0.17448  -0.15569  -0.20314  -0.06897
  35        2PZ        -0.00621   0.00591   0.09317  -0.06238   0.03043
  36        3S         -0.90764  -0.66971   0.52199   0.32132  -0.21690
  37        3PX        -0.65401  -0.00420  -0.18357  -0.12573   0.14751
  38        3PY         0.21562   0.07944  -0.12645   0.00039   0.10806
  39        3PZ        -0.01256  -0.04051  -0.21542   0.23504  -0.22890
  40        4XX        -0.04130   0.32163   0.22202   0.26875   0.04966
  41        4YY         0.06618  -0.02388   0.00014  -0.08469  -0.00471
  42        4ZZ         0.05814  -0.25271  -0.25749  -0.14396  -0.01377
  43        4XY         0.21814  -0.44389   0.12836   0.15472  -0.12455
  44        4XZ         0.01136  -0.03203  -0.02250   0.01952   0.22761
  45        4YZ        -0.04363  -0.00452   0.34586  -0.39335   0.50965
  46 4   F  1S          0.05360  -0.00960  -0.00784  -0.00108   0.00217
  47        2S          0.52757   0.17161   0.07813   0.22403  -0.36337
  48        2PX         0.07355   0.00234  -0.05569  -0.11173   0.09963
  49        2PY         0.09082   0.26849   0.02619   0.01431  -0.03526
  50        2PZ         0.00477  -0.00116   0.12158  -0.10143  -0.08688
  51        3S         -1.61224  -0.23508  -0.09013  -0.41978   0.71096
  52        3PX         0.12364  -0.07475   0.04104   0.20515  -0.27529
  53        3PY        -0.39774  -0.48723  -0.02800  -0.01041   0.10322
  54        3PZ        -0.02502   0.00074  -0.23343   0.20968   0.18962
  55        4XX         0.44793   0.38152  -0.09814  -0.14466   0.03555
  56        4YY         0.47517  -0.51634   0.26158   0.27622  -0.08976
  57        4ZZ        -0.25450   0.16985  -0.17259  -0.01908  -0.05737
  58        4XY        -0.13147   0.38448   0.09350   0.12930  -0.05045
  59        4XZ        -0.11235  -0.04424   0.48360  -0.43809  -0.48694
  60        4YZ        -0.03206   0.01419  -0.14131   0.14638   0.19571
                          51        52        53        54        55
                           V         V         V         V         V
     Eigenvalues --     2.55152   2.56866   2.66948   2.83960   2.97134
   1 1   F  1S         -0.01414   0.00007  -0.04870   0.01921   0.01150
   2        2S          0.18193   0.30650   0.74559  -0.15251  -0.89310
   3        2PX         0.11066  -0.04252   0.21710  -0.09744  -0.06889
   4        2PY         0.00435   0.15711   0.10001  -0.04855  -0.06532
   5        2PZ         0.06987   0.01077   0.00490  -0.00312   0.00034
   6        3S         -0.21382  -0.70196  -1.19365   0.14032   1.91401
   7        3PX        -0.18521   0.06651  -0.57578  -0.00462   1.07305
   8        3PY         0.11599  -0.59709  -0.20757  -0.03455   0.85048
   9        3PZ        -0.27791  -0.04067   0.03741  -0.02362   0.06737
  10        4XX        -0.13656   0.35424  -0.39700   0.03232   0.50038
  11        4YY         0.14831  -0.32627   0.02487  -0.06580   0.22414
  12        4ZZ        -0.03957   0.01397   0.10300   0.08045  -0.41215
  13        4XY         0.11698  -0.37222  -0.12473  -0.21758   0.90740
  14        4XZ        -0.56381  -0.07502   0.15735  -0.03471   0.08749
  15        4YZ        -0.27791  -0.00191   0.11288  -0.02327   0.08430
  16 2   C  1S         -0.02711   0.09446   0.01457   0.02866   0.11853
  17        2S         -0.02677   0.00456  -0.19560  -0.89803  -1.50301
  18        2PX         0.05035  -0.56991  -0.43538  -0.18017   0.61224
  19        2PY        -0.24288   0.32550  -0.60771  -0.93704   0.52871
  20        2PZ        -0.00948  -0.06552   0.01106   0.05569   0.07144
  21        3S         -0.13246  -0.15918  -0.83182  -1.36322  -1.72757
  22        3PX         0.09574  -1.17505  -0.87787   0.07657   0.17828
  23        3PY        -0.47423   0.67634  -1.00641  -0.41645   0.02555
  24        3PZ        -0.03074  -0.05643   0.02429   0.06392   0.08198
  25        4XX        -0.16039   0.15667  -0.30412   0.41032  -0.52890
  26        4YY         0.11991  -0.10760   0.18923  -0.70648   0.49361
  27        4ZZ        -0.09393   0.44994   0.19935   0.44310   0.89200
  28        4XY        -0.10462   0.01347  -0.28720   0.58219  -0.42034
  29        4XZ        -0.54676   0.15047   0.22986  -0.01305  -0.03098
  30        4YZ        -0.74641  -0.41485   0.26890   0.02108  -0.03584
  31 3   O  1S         -0.00298   0.00284  -0.01358  -0.03644  -0.02566
  32        2S         -0.34109   0.40734  -0.65408  -0.54698  -0.29022
  33        2PX        -0.00070  -0.04503  -0.02442  -0.00935   0.01493
  34        2PY         0.12490  -0.11474   0.10850  -0.18435   0.09961
  35        2PZ        -0.00618   0.01327  -0.02096   0.01854  -0.00347
  36        3S          0.80409  -0.97916   1.87925   2.03331   0.94795
  37        3PX        -0.00473   0.41987   0.39969  -0.14909  -0.00982
  38        3PY        -0.37999   0.51344  -0.91441  -1.31020  -0.37963
  39        3PZ         0.25526   0.10396   0.01378   0.07515   0.00711
  40        4XX        -0.12077   0.16795  -0.23440  -0.53948  -0.08962
  41        4YY         0.11501  -0.32335   0.51618   1.16377   0.02828
  42        4ZZ        -0.05406   0.17986  -0.32294  -0.52015  -0.17008
  43        4XY        -0.02354  -0.36967  -0.49286   0.33519  -0.08233
  44        4XZ         0.14821   0.01289  -0.00339  -0.02375   0.00645
  45        4YZ        -0.60533  -0.33785   0.10739  -0.14732  -0.02011
  46 4   F  1S         -0.00708   0.01702  -0.01407  -0.00757  -0.00793
  47        2S          0.21294  -0.98660  -0.32638  -0.23727  -0.43450
  48        2PX        -0.07862   0.25210   0.00110   0.08680   0.09232
  49        2PY        -0.01612  -0.07214  -0.12667   0.03018  -0.05450
  50        2PZ        -0.01624  -0.00483  -0.00279  -0.00088  -0.00132
  51        3S         -0.35973   1.88423   0.84121   0.51137   0.90450
  52        3PX         0.22679  -0.84872  -0.14682  -0.33074  -0.46139
  53        3PY         0.04888   0.27024   0.47710  -0.01005   0.23136
  54        3PZ         0.04317   0.02610   0.01118   0.00607   0.01117
  55        4XX        -0.17608   0.37729  -0.19950   0.35656   0.13874
  56        4YY         0.08842  -0.18316   0.11072  -0.32677  -0.05406
  57        4ZZ         0.08231  -0.28071  -0.09292  -0.13061  -0.19672
  58        4XY        -0.05938  -0.18259  -0.44649   0.07357  -0.32583
  59        4XZ        -0.05947   0.08030   0.02206  -0.03103  -0.02775
  60        4YZ         0.16588  -0.00309   0.00173   0.00048   0.02697
                          56        57        58        59        60
                           V         V         V         V         V
     Eigenvalues --     3.02084   3.68921   4.05109   4.22445   4.59234
   1 1   F  1S          0.00849  -0.12345  -0.21688   0.16292  -0.69920
   2        2S          0.20898  -0.31825  -0.68573   0.38340  -2.73724
   3        2PX        -0.01503   0.00223  -0.16260   0.09590  -0.25228
   4        2PY        -0.05891  -0.04006   0.01783   0.12037  -0.18977
   5        2PZ         0.00006   0.01177   0.00075   0.01619  -0.02700
   6        3S         -0.58634   1.56279   2.82716  -1.85828  10.57591
   7        3PX        -0.54036   0.13720   0.51844   0.43111   1.46558
   8        3PY        -0.06795   0.30164  -0.20012   0.06536   1.09141
   9        3PZ        -0.04387  -0.02968  -0.00712   0.00463   0.12739
  10        4XX        -0.68529  -0.45990  -0.74053   1.04731  -2.46175
  11        4YY         0.41885  -0.48874  -0.99910   0.70952  -2.70325
  12        4ZZ         0.17132  -0.44023  -0.89828   0.54491  -3.00369
  13        4XY        -0.19525   0.11115  -0.03673   0.30617   0.43201
  14        4XZ        -0.07631  -0.01116   0.00734   0.04915   0.04291
  15        4YZ        -0.00500   0.01345  -0.02276   0.02555   0.03338
  16 2   C  1S          0.04362  -0.01329   0.14634  -0.38061  -0.18320
  17        2S          0.39862   0.01179  -0.73808   2.53322   0.67898
  18        2PX        -0.56088   0.01898  -0.10437   0.05878   0.40217
  19        2PY         0.27757   0.02103   0.18156   0.02332   0.17162
  20        2PZ        -0.02330   0.01083  -0.00177   0.06062   0.04500
  21        3S          0.01475  -2.60588  -0.85185  -0.30607  -1.07337
  22        3PX        -0.19022  -0.07167  -0.74863  -1.03159   2.32435
  23        3PY         0.00934  -1.14256   1.43851  -0.00717   1.25142
  24        3PZ         0.01105   0.14494   0.06273   0.03905   0.10097
  25        4XX        -0.62070  -0.15419   0.53850  -2.10166  -0.86575
  26        4YY         0.84719   0.03921   0.46314  -2.00897  -0.85366
  27        4ZZ         0.01126   0.15554   0.59849  -1.24931  -0.42920
  28        4XY         1.01315   0.01237   0.04033  -0.15878  -0.06748
  29        4XZ         0.01249  -0.00541   0.02238   0.01860  -0.05175
  30        4YZ         0.00347   0.00048  -0.02605  -0.00911  -0.01220
  31 3   O  1S          0.01648  -0.49480   0.18550   0.01385   0.06768
  32        2S          0.00895  -0.17049   0.27646  -0.07040   0.11355
  33        2PX        -0.02613  -0.00230  -0.01256  -0.01816   0.07691
  34        2PY         0.22420   0.21177  -0.09829  -0.21950  -0.14453
  35        2PZ        -0.01879  -0.00963   0.01810   0.01547   0.02081
  36        3S         -0.41329   5.42126  -2.48915   0.29766  -0.98042
  37        3PX        -0.17312   0.01937   0.17246   0.29837  -0.66735
  38        3PY         0.40615  -1.22812   0.68235  -0.45924   0.01361
  39        3PZ        -0.03562   0.05296  -0.08709   0.02713  -0.05627
  40        4XX         0.22340  -1.72866   0.60559   0.01093   0.18468
  41        4YY        -0.53248  -1.40675   0.40941   0.48257   0.41209
  42        4ZZ         0.17598  -1.68269   0.73913  -0.00587   0.21974
  43        4XY         0.49223   0.00170  -0.04130  -0.12625   0.18679
  44        4XZ        -0.03638   0.00091   0.00821   0.01779  -0.03078
  45        4YZ         0.08214  -0.01440   0.02308  -0.04910  -0.00762
  46 4   F  1S         -0.02943  -0.16614  -0.56507  -0.26534   0.19907
  47        2S         -0.47363  -0.42217  -1.65194  -1.12426   0.61553
  48        2PX         0.07923   0.03101   0.25458   0.17526  -0.01833
  49        2PY        -0.05964  -0.03747  -0.05209  -0.09156   0.12450
  50        2PZ        -0.00386   0.00568  -0.01041  -0.01373   0.01834
  51        3S          1.04745   2.03787   7.11401   3.96478  -2.75826
  52        3PX        -0.59207  -0.24029  -0.88083  -0.86619  -0.01236
  53        3PY         0.30561   0.22958   0.14719   0.44618  -0.47659
  54        3PZ         0.03541  -0.01257   0.03457   0.05673  -0.05764
  55        4XX         0.38287  -0.55780  -2.08272  -0.65520   1.01289
  56        4YY        -0.25324  -0.72386  -2.32262  -1.11456   0.68207
  57        4ZZ        -0.38022  -0.61188  -2.33488  -1.25820   0.75021
  58        4XY        -0.40070  -0.10041  -0.03480  -0.33292   0.03687
  59        4XZ        -0.06654   0.00284  -0.00755  -0.04044  -0.00819
  60        4YZ         0.02572   0.01435  -0.00992   0.02426  -0.01921
     Density Matrix:
                           1         2         3         4         5
   1 1   F  1S          2.08523
   2        2S         -0.21560   0.57327
   3        2PX         0.03147  -0.05724   0.70454
   4        2PY         0.01813  -0.02816  -0.10741   0.84144
   5        2PZ         0.00308  -0.00360  -0.01611  -0.01017   0.85891
   6        3S         -0.22265   0.56253  -0.15691  -0.09287  -0.02275
   7        3PX         0.01975  -0.04163   0.42310  -0.09199  -0.01499
   8        3PY         0.01168  -0.02162  -0.08987   0.52713  -0.00853
   9        3PZ         0.00191  -0.00240  -0.01331  -0.00805   0.57198
  10        4XX        -0.02278   0.01450   0.03628  -0.00789  -0.00041
  11        4YY        -0.02082   0.01070  -0.00707   0.02727   0.00048
  12        4ZZ        -0.02033   0.00980  -0.00115   0.00158   0.00518
  13        4XY        -0.00226   0.00439   0.00909   0.02230  -0.00064
  14        4XZ        -0.00023   0.00051   0.00114  -0.00088   0.03152
  15        4YZ        -0.00016   0.00037  -0.00087   0.00196   0.01870
  16 2   C  1S          0.00541  -0.01237  -0.08113  -0.04384  -0.00651
  17        2S          0.00143   0.00359   0.18803   0.10093   0.01681
  18        2PX         0.01557  -0.04903  -0.19077  -0.18737  -0.02102
  19        2PY         0.01283  -0.03999  -0.22314  -0.08631  -0.01630
  20        2PZ         0.00105  -0.00453  -0.01674  -0.00919   0.11848
  21        3S          0.01530  -0.03524   0.04973   0.06438  -0.00726
  22        3PX        -0.00566   0.01212   0.04837  -0.02189  -0.01472
  23        3PY        -0.00444   0.00783  -0.05778   0.10877  -0.01625
  24        3PZ        -0.00030  -0.00029  -0.00191  -0.00238   0.05758
  25        4XX        -0.00399   0.01039  -0.00994   0.03639   0.00231
  26        4YY         0.00135  -0.00237   0.00828  -0.03253  -0.00056
  27        4ZZ         0.00306  -0.00748  -0.01276  -0.00819  -0.00304
  28        4XY        -0.00856   0.01977   0.03987   0.01496   0.00433
  29        4XZ        -0.00070   0.00155   0.00333   0.00343  -0.03027
  30        4YZ        -0.00057   0.00138   0.00389   0.00138  -0.02854
  31 3   O  1S         -0.00038   0.00109  -0.00110   0.01569  -0.00154
  32        2S          0.00108  -0.00196  -0.00267  -0.02466   0.00007
  33        2PX        -0.01861   0.02937   0.02870   0.10872   0.00578
  34        2PY        -0.00931   0.02524   0.03624   0.09331  -0.00707
  35        2PZ        -0.00016  -0.00154   0.00080  -0.00204  -0.15019
  36        3S         -0.00410   0.01136   0.05465  -0.12066   0.02477
  37        3PX        -0.01159   0.01749   0.01411   0.07770   0.00936
  38        3PY        -0.00299   0.00881  -0.00214   0.08327  -0.01433
  39        3PZ        -0.00012  -0.00073   0.00416  -0.00425  -0.12371
  40        4XX        -0.00007   0.00015  -0.00392   0.00803  -0.00130
  41        4YY        -0.00021   0.00001   0.00010   0.00466  -0.00029
  42        4ZZ         0.00007   0.00023  -0.00072   0.00480  -0.00207
  43        4XY         0.00021   0.00016   0.00437  -0.00059  -0.00048
  44        4XZ        -0.00002  -0.00005  -0.00040   0.00031  -0.00183
  45        4YZ        -0.00003   0.00022   0.00039   0.00035   0.00573
  46 4   F  1S          0.00026   0.00055   0.01134  -0.00468  -0.00080
  47        2S          0.00107  -0.00200  -0.01878   0.00240  -0.00211
  48        2PX        -0.01436   0.02254   0.14837  -0.01806   0.00363
  49        2PY        -0.00664  -0.00619   0.01308   0.00168   0.00130
  50        2PZ        -0.00082  -0.00397  -0.00361   0.00201  -0.05104
  51        3S         -0.00442   0.00799  -0.06653   0.04275   0.01324
  52        3PX        -0.00760   0.01049   0.10815  -0.02689  -0.00006
  53        3PY        -0.00474  -0.00391   0.00491  -0.00130   0.00599
  54        3PZ        -0.00055  -0.00278  -0.00391   0.00298  -0.04385
  55        4XX         0.00065  -0.00055   0.00551  -0.00063  -0.00173
  56        4YY         0.00043  -0.00090   0.00334  -0.00578  -0.00120
  57        4ZZ         0.00079  -0.00115   0.00295  -0.00354  -0.00196
  58        4XY         0.00019   0.00019   0.00179  -0.00032  -0.00073
  59        4XZ         0.00000   0.00018   0.00044  -0.00028   0.00077
  60        4YZ        -0.00003  -0.00007  -0.00007  -0.00014  -0.00231
                           6         7         8         9        10
   6        3S          0.62568
   7        3PX        -0.08863   0.25721
   8        3PY        -0.05191  -0.06971   0.33246
   9        3PZ        -0.01397  -0.01138  -0.00636   0.38224
  10        4XX         0.00394   0.02073  -0.00676  -0.00045   0.00327
  11        4YY         0.00410  -0.00613   0.01649   0.00025   0.00043
  12        4ZZ         0.00675  -0.00144   0.00062   0.00342   0.00063
  13        4XY        -0.00022   0.00457   0.01345  -0.00052   0.00072
  14        4XZ        -0.00042   0.00051  -0.00070   0.02064   0.00010
  15        4YZ        -0.00025  -0.00069   0.00116   0.01220  -0.00003
  16 2   C  1S          0.01379  -0.05011  -0.02641  -0.00350  -0.00903
  17        2S         -0.07286   0.10735   0.05463   0.00855   0.01827
  18        2PX         0.03201  -0.09908  -0.10069  -0.01195  -0.00872
  19        2PY         0.01989  -0.12173  -0.04447  -0.00899  -0.01712
  20        2PZ         0.00437  -0.00783  -0.00474   0.06022  -0.00213
  21        3S         -0.06991   0.02640   0.03597  -0.00679   0.00638
  22        3PX         0.04228   0.03656  -0.00848  -0.00931   0.00062
  23        3PY         0.03679  -0.03174   0.06976  -0.01015  -0.00668
  24        3PZ         0.00335  -0.00013  -0.00078   0.02899  -0.00064
  25        4XX         0.00984  -0.00730   0.02252   0.00155  -0.00033
  26        4YY        -0.00117   0.00605  -0.02008  -0.00040   0.00034
  27        4ZZ        -0.00251  -0.00715  -0.00450  -0.00175  -0.00129
  28        4XY         0.02215   0.02491   0.00960   0.00301   0.00150
  29        4XZ         0.00165   0.00199   0.00222  -0.02052   0.00012
  30        4YZ         0.00100   0.00249   0.00062  -0.01985   0.00027
  31 3   O  1S         -0.00331  -0.00261   0.00730  -0.00109  -0.00011
  32        2S          0.00912   0.00266  -0.00869   0.00019   0.00012
  33        2PX         0.14719   0.03972   0.09798   0.00735  -0.00690
  34        2PY         0.02961   0.01497   0.05872  -0.00688   0.00101
  35        2PZ         0.00617   0.00497  -0.00184  -0.12032  -0.00076
  36        3S          0.00611   0.03378  -0.06942   0.01575   0.00523
  37        3PX         0.09396   0.02285   0.06815   0.00864  -0.00489
  38        3PY         0.01755  -0.00415   0.05299  -0.01058  -0.00127
  39        3PZ         0.00302   0.00533  -0.00332  -0.09489  -0.00013
  40        4XX         0.00157  -0.00236   0.00500  -0.00080  -0.00041
  41        4YY        -0.00152   0.00026   0.00274  -0.00003   0.00020
  42        4ZZ         0.00087  -0.00042   0.00300  -0.00149  -0.00014
  43        4XY        -0.00672   0.00135  -0.00199  -0.00054   0.00055
  44        4XZ         0.00050  -0.00015   0.00034  -0.00124  -0.00005
  45        4YZ        -0.00023  -0.00004   0.00023   0.00517   0.00007
  46 4   F  1S         -0.00402   0.00504  -0.00351  -0.00056   0.00051
  47        2S          0.00381  -0.00748   0.00157  -0.00142   0.00009
  48        2PX         0.09824   0.10661  -0.01040   0.00357  -0.00953
  49        2PY         0.09570   0.02966  -0.00055   0.00413  -0.00688
  50        2PZ         0.01915  -0.00033   0.00875  -0.05015  -0.00256
  51        3S          0.00853  -0.03982   0.02481   0.00865  -0.00389
  52        3PX         0.06573   0.07812  -0.01514   0.00089  -0.00600
  53        3PY         0.06267   0.01707  -0.00231   0.00618  -0.00478
  54        3PZ         0.01289  -0.00124   0.00698  -0.03980  -0.00182
  55        4XX        -0.00591   0.00274  -0.00071  -0.00125   0.00147
  56        4YY         0.00262   0.00298  -0.00328  -0.00068   0.00000
  57        4ZZ        -0.00007   0.00217  -0.00209  -0.00134   0.00013
  58        4XY        -0.00173   0.00055  -0.00024  -0.00058   0.00002
  59        4XZ        -0.00038   0.00022  -0.00040   0.00125   0.00005
  60        4YZ         0.00040   0.00006  -0.00002  -0.00184  -0.00004
                          11        12        13        14        15
  11        4YY         0.00181
  12        4ZZ         0.00064   0.00050
  13        4XY         0.00093   0.00015   0.00104
  14        4XZ        -0.00000   0.00020   0.00000   0.00126
  15        4YZ         0.00010   0.00014   0.00005   0.00077   0.00050
  16 2   C  1S         -0.00251   0.00087  -0.00723  -0.00092  -0.00062
  17        2S          0.00661   0.00086   0.01305   0.00165   0.00114
  18        2PX        -0.01228  -0.00336  -0.00948  -0.00126  -0.00119
  19        2PY         0.00094  -0.00246  -0.00166  -0.00126  -0.00010
  20        2PZ        -0.00140   0.00042  -0.00106   0.00985   0.00729
  21        3S          0.00249  -0.00025   0.00526   0.00044   0.00053
  22        3PX        -0.00438  -0.00170   0.00008  -0.00044  -0.00049
  23        3PY         0.00126  -0.00171   0.00218  -0.00063   0.00009
  24        3PZ        -0.00056   0.00011  -0.00012   0.00469   0.00328
  25        4XX         0.00081   0.00016   0.00050   0.00007   0.00010
  26        4YY        -0.00074  -0.00003  -0.00064   0.00001  -0.00006
  27        4ZZ        -0.00060  -0.00021  -0.00087  -0.00021  -0.00014
  28        4XY        -0.00014  -0.00004   0.00118   0.00024   0.00013
  29        4XZ         0.00012  -0.00019   0.00019  -0.00110  -0.00073
  30        4YZ        -0.00002  -0.00007   0.00004  -0.00070  -0.00024
  31 3   O  1S         -0.00027   0.00011  -0.00012  -0.00000   0.00001
  32        2S          0.00058  -0.00009   0.00050  -0.00012  -0.00003
  33        2PX        -0.00890  -0.00467   0.00263  -0.00022   0.00015
  34        2PY        -0.00314   0.00114  -0.00498   0.00031   0.00005
  35        2PZ        -0.00086  -0.00058  -0.00009   0.00143   0.00359
  36        3S         -0.00210   0.00186  -0.00401   0.00083  -0.00005
  37        3PX        -0.00549  -0.00298   0.00178   0.00002   0.00025
  38        3PY        -0.00104   0.00006  -0.00176  -0.00020   0.00000
  39        3PZ        -0.00058  -0.00038  -0.00018  -0.00012   0.00177
  40        4XX         0.00005  -0.00009   0.00007  -0.00006  -0.00001
  41        4YY         0.00052  -0.00008   0.00079  -0.00005   0.00000
  42        4ZZ         0.00001  -0.00005   0.00006  -0.00003   0.00002
  43        4XY         0.00065   0.00028   0.00013   0.00002   0.00000
  44        4XZ        -0.00004  -0.00004  -0.00000  -0.00007  -0.00005
  45        4YZ         0.00004   0.00002  -0.00000  -0.00024  -0.00031
  46 4   F  1S         -0.00007   0.00070  -0.00026  -0.00003  -0.00009
  47        2S          0.00000  -0.00053   0.00001  -0.00010  -0.00005
  48        2PX        -0.00424  -0.00424   0.00131   0.00027   0.00012
  49        2PY        -0.01289  -0.00812  -0.00012   0.00032  -0.00025
  50        2PZ        -0.00179  -0.00280   0.00059  -0.00031  -0.00287
  51        3S          0.00364   0.00048  -0.00008   0.00033   0.00053
  52        3PX        -0.00405  -0.00319   0.00058   0.00008  -0.00007
  53        3PY        -0.00837  -0.00527  -0.00026   0.00038  -0.00007
  54        3PZ        -0.00111  -0.00196   0.00043  -0.00071  -0.00232
  55        4XX         0.00002   0.00013   0.00029  -0.00003  -0.00005
  56        4YY        -0.00061  -0.00027  -0.00008  -0.00004  -0.00006
  57        4ZZ        -0.00031  -0.00013  -0.00005  -0.00006  -0.00006
  58        4XY         0.00025   0.00018  -0.00010  -0.00003  -0.00001
  59        4XZ         0.00005   0.00007  -0.00002  -0.00009   0.00000
  60        4YZ        -0.00005  -0.00005   0.00000  -0.00002  -0.00002
                          16        17        18        19        20
  16 2   C  1S          2.04558
  17        2S         -0.07865   0.39913
  18        2PX        -0.00164   0.00261   0.30661
  19        2PY        -0.02311   0.05614   0.00694   0.39445
  20        2PZ        -0.00210   0.00413   0.00155  -0.00267   0.32481
  21        3S         -0.08436   0.18318   0.03312   0.00463   0.01890
  22        3PX        -0.00802   0.01523   0.04855  -0.01538  -0.00099
  23        3PY         0.00487  -0.01027  -0.01714   0.03324   0.00488
  24        3PZ        -0.00486   0.01086  -0.00044   0.00048   0.15114
  25        4XX        -0.01084  -0.01259  -0.00224  -0.02758   0.00009
  26        4YY        -0.01607  -0.00156  -0.00043   0.01590   0.00070
  27        4ZZ        -0.00920  -0.02144   0.00405  -0.00092  -0.00205
  28        4XY        -0.00090   0.00430  -0.01530  -0.01134  -0.00060
  29        4XZ         0.00001   0.00014  -0.00256  -0.00060  -0.00381
  30        4YZ        -0.00005   0.00007  -0.00058  -0.00339   0.01472
  31 3   O  1S          0.00939  -0.00796   0.00101  -0.03692   0.00317
  32        2S         -0.02254   0.02300  -0.00333   0.08953  -0.00782
  33        2PX        -0.00646   0.01902   0.18397  -0.01031  -0.00272
  34        2PY         0.11079  -0.27817   0.00203  -0.36680   0.03880
  35        2PZ        -0.01323   0.02992  -0.00162   0.02541   0.36366
  36        3S          0.02094  -0.08505  -0.00120  -0.03552  -0.00477
  37        3PX        -0.00223   0.00898   0.11582  -0.00425  -0.00176
  38        3PY         0.05441  -0.13470   0.00290  -0.17578   0.02273
  39        3PZ        -0.00710   0.01556  -0.00090   0.01264   0.22713
  40        4XX         0.00129  -0.00315  -0.00024  -0.00308   0.00011
  41        4YY        -0.01085   0.02589  -0.00062   0.02181  -0.00356
  42        4ZZ         0.00054  -0.00129  -0.00004  -0.00273   0.00255
  43        4XY         0.00017  -0.00052  -0.01505   0.00032   0.00009
  44        4XZ         0.00001  -0.00002   0.00102   0.00004  -0.00034
  45        4YZ         0.00120  -0.00267   0.00006  -0.00243  -0.02417
  46 4   F  1S         -0.00012   0.00697  -0.00348   0.00383   0.00034
  47        2S         -0.00302  -0.00918   0.02062  -0.01600  -0.00212
  48        2PX         0.06972  -0.15957  -0.24338   0.17528   0.00688
  49        2PY        -0.01992   0.04593   0.10656  -0.03882  -0.00221
  50        2PZ        -0.00500   0.01285   0.01700  -0.01098   0.08162
  51        3S          0.02730  -0.07686  -0.05602   0.01850   0.00303
  52        3PX         0.04512  -0.09860  -0.14372   0.11280   0.00301
  53        3PY        -0.01104   0.02422   0.06468  -0.02345  -0.00141
  54        3PZ        -0.00278   0.00713   0.01067  -0.00699   0.04560
  55        4XX        -0.01095   0.02100   0.01615  -0.01365  -0.00122
  56        4YY        -0.00175   0.00365   0.00733  -0.00019  -0.00077
  57        4ZZ        -0.00089   0.00222   0.00390  -0.00166  -0.00002
  58        4XY         0.00414  -0.00792  -0.00709  -0.00064   0.00046
  59        4XZ         0.00070  -0.00135  -0.00118   0.00079  -0.00673
  60        4YZ        -0.00027   0.00053   0.00054   0.00007   0.00328
                          21        22        23        24        25
  21        3S          0.11131
  22        3PX         0.00213   0.04273
  23        3PY         0.00517   0.00441   0.05985
  24        3PZ         0.01058   0.00113   0.00090   0.07344
  25        4XX        -0.00108  -0.00112   0.00831  -0.00030   0.00489
[...]
  43        4XY         0.00000   0.00129   0.00000   0.00000   0.00000
  44        4XZ        -0.00000   0.00001  -0.00000  -0.00000   0.00000
  45        4YZ         0.00003   0.00000   0.00001   0.00175  -0.00000
  46 4   F  1S          0.00038   0.00043   0.00007   0.00000  -0.00002
  47        2S         -0.00451  -0.00506  -0.00097   0.00000   0.00089
  48        2PX         0.01107  -0.00220   0.00527   0.00004   0.00106
  49        2PY         0.00231   0.00274   0.00780   0.00001   0.00172
  50        2PZ        -0.00003   0.00015   0.00004   0.00654   0.00001
  51        3S         -0.02449  -0.02364  -0.00421  -0.00001   0.00258
  52        3PX         0.03104  -0.00504   0.01107   0.00008   0.00233
  53        3PY         0.00622   0.00527   0.02606   0.00002   0.00373
  54        3PZ        -0.00011   0.00034   0.00009   0.01831   0.00003
  55        4XX         0.00352   0.00027   0.00100   0.00001   0.00016
  56        4YY         0.00043   0.00129  -0.00017   0.00001   0.00001
  57        4ZZ         0.00024   0.00053   0.00000  -0.00000   0.00000
  58        4XY         0.00031   0.00006   0.00030   0.00000   0.00012
  59        4XZ         0.00000   0.00000   0.00000   0.00060   0.00000
  60        4YZ         0.00000   0.00000   0.00000   0.00011   0.00000
                          26        27        28        29        30
  26        4YY         0.00330
  27        4ZZ         0.00001   0.00155
  28        4XY        -0.00000   0.00000   0.00737
  29        4XZ        -0.00000  -0.00000   0.00000   0.00177
  30        4YZ        -0.00000  -0.00000   0.00000  -0.00000   0.00286
  31 3   O  1S         -0.00056   0.00000  -0.00000   0.00000  -0.00001
  32        2S          0.00739  -0.00036   0.00000  -0.00000   0.00007
  33        2PX         0.00000  -0.00000   0.00729   0.00002  -0.00000
  34        2PY         0.00357  -0.00061   0.00002  -0.00000   0.00021
  35        2PZ         0.00007   0.00002   0.00000   0.00000   0.00496
  36        3S          0.01200  -0.00104   0.00000  -0.00000   0.00006
  37        3PX         0.00000   0.00000   0.00783   0.00002  -0.00000
  38        3PY         0.00312  -0.00184   0.00001  -0.00000   0.00007
  39        3PZ         0.00007  -0.00001   0.00000   0.00000   0.00572
  40        4XX        -0.00019   0.00001   0.00000  -0.00000  -0.00000
  41        4YY         0.00001  -0.00020   0.00000   0.00000   0.00002
  42        4ZZ        -0.00010   0.00001  -0.00000  -0.00000   0.00001
  43        4XY        -0.00000   0.00000   0.00058   0.00001   0.00000
  44        4XZ        -0.00000  -0.00000   0.00000   0.00001  -0.00000
  45        4YZ         0.00001   0.00000   0.00000   0.00000   0.00072
  46 4   F  1S          0.00000   0.00000  -0.00002  -0.00000  -0.00000
  47        2S         -0.00014  -0.00003   0.00068   0.00001   0.00000
  48        2PX        -0.00040  -0.00006   0.00340   0.00003   0.00001
  49        2PY         0.00004  -0.00001  -0.00001   0.00001  -0.00000
  50        2PZ        -0.00000   0.00000   0.00001   0.00092   0.00026
  51        3S         -0.00060  -0.00010   0.00139   0.00001   0.00000
  52        3PX        -0.00193  -0.00066   0.00416   0.00004   0.00001
  53        3PY        -0.00044  -0.00011  -0.00000   0.00001   0.00000
  54        3PZ        -0.00002  -0.00000   0.00002   0.00288   0.00083
  55        4XX        -0.00013  -0.00009   0.00035   0.00000   0.00000
  56        4YY        -0.00000  -0.00000   0.00000   0.00000   0.00000
  57        4ZZ        -0.00000  -0.00000  -0.00000   0.00000  -0.00000
  58        4XY         0.00000  -0.00002  -0.00000   0.00000   0.00000
  59        4XZ        -0.00000   0.00000   0.00000   0.00013   0.00002
  60        4YZ         0.00000   0.00000  -0.00000   0.00002   0.00000
                          31        32        33        34        35
  31 3   O  1S          2.08005
  32        2S         -0.04383   0.52735
  33        2PX         0.00000   0.00000   0.81230
  34        2PY         0.00000   0.00000  -0.00000   0.56289
  35        2PZ         0.00000   0.00000   0.00000   0.00000   0.57961
  36        3S         -0.04257   0.46308   0.00000   0.00000   0.00000
  37        3PX         0.00000   0.00000   0.26499  -0.00000   0.00000
  38        3PY         0.00000   0.00000  -0.00000   0.14379   0.00000
  39        3PZ         0.00000   0.00000   0.00000   0.00000   0.19169
  40        4XX        -0.00036  -0.00583   0.00000   0.00000   0.00000
  41        4YY        -0.00037  -0.00468   0.00000   0.00000   0.00000
  42        4ZZ        -0.00043  -0.00333   0.00000   0.00000   0.00000
  43        4XY         0.00000   0.00000   0.00000   0.00000   0.00000
  44        4XZ         0.00000   0.00000   0.00000   0.00000   0.00000
  45        4YZ        -0.00000   0.00000   0.00000   0.00000   0.00000
  46 4   F  1S          0.00000   0.00000   0.00000   0.00000   0.00000
  47        2S          0.00000  -0.00000  -0.00000  -0.00000  -0.00000
  48        2PX         0.00000  -0.00000  -0.00001  -0.00001  -0.00000
  49        2PY         0.00000  -0.00000  -0.00001  -0.00001  -0.00000
  50        2PZ         0.00000   0.00000   0.00000  -0.00000  -0.00000
  51        3S         -0.00000   0.00004  -0.00069  -0.00027   0.00000
  52        3PX         0.00000  -0.00012  -0.00090  -0.00093  -0.00000
  53        3PY         0.00001  -0.00019  -0.00144  -0.00098  -0.00000
  54        3PZ         0.00000   0.00000   0.00000  -0.00000  -0.00034
  55        4XX         0.00000  -0.00000  -0.00000  -0.00000  -0.00000
  56        4YY         0.00000  -0.00000   0.00002   0.00000  -0.00000
  57        4ZZ         0.00000  -0.00000   0.00000   0.00000   0.00000
  58        4XY         0.00000  -0.00000  -0.00000   0.00001  -0.00000
  59        4XZ         0.00000   0.00000   0.00000   0.00000   0.00000
  60        4YZ        -0.00000   0.00000   0.00000   0.00000   0.00000
                          36        37        38        39        40
  36        3S          0.80542
  37        3PX         0.00000   0.34395
  38        3PY         0.00000  -0.00000   0.15161
  39        3PZ         0.00000   0.00000   0.00000   0.25403
  40        4XX        -0.00959   0.00000   0.00000   0.00000   0.00058
  41        4YY        -0.01687   0.00000   0.00000   0.00000   0.00003
  42        4ZZ        -0.00511   0.00000   0.00000   0.00000   0.00012
  43        4XY        -0.00000   0.00000   0.00000   0.00000   0.00000
  44        4XZ         0.00000   0.00000   0.00000   0.00000  -0.00000
  45        4YZ         0.00000   0.00000   0.00000   0.00000  -0.00000
  46 4   F  1S         -0.00000   0.00003   0.00001  -0.00000  -0.00000
  47        2S          0.00004  -0.00045  -0.00025  -0.00000   0.00000
  48        2PX         0.00020  -0.00072  -0.00071  -0.00000  -0.00000
  49        2PY        -0.00149  -0.00149  -0.00195  -0.00000   0.00001
  50        2PZ        -0.00000   0.00000  -0.00000  -0.00056   0.00000
  51        3S          0.00111  -0.00612  -0.00185   0.00000   0.00002
  52        3PX         0.00156  -0.00374  -0.00364   0.00000  -0.00003
  53        3PY        -0.00940  -0.00829  -0.00814  -0.00000   0.00034
  54        3PZ        -0.00000   0.00000  -0.00000  -0.00422   0.00000
  55        4XX        -0.00000  -0.00003   0.00001  -0.00000  -0.00000
  56        4YY        -0.00011   0.00043   0.00003  -0.00000   0.00000
  57        4ZZ        -0.00002   0.00006   0.00000  -0.00000   0.00000
  58        4XY        -0.00017  -0.00005   0.00003  -0.00000   0.00000
  59        4XZ        -0.00000   0.00000  -0.00000   0.00000   0.00000
  60        4YZ         0.00000   0.00000   0.00000   0.00004  -0.00000
                          41        42        43        44        45
  41        4YY         0.00311
  42        4ZZ         0.00001   0.00029
  43        4XY         0.00000   0.00000   0.00185
  44        4XZ         0.00000  -0.00000  -0.00000   0.00002
  45        4YZ         0.00000  -0.00000  -0.00000  -0.00000   0.00228
  46 4   F  1S          0.00000   0.00000   0.00000   0.00000  -0.00000
  47        2S         -0.00000  -0.00000  -0.00000  -0.00000  -0.00000
  48        2PX        -0.00000  -0.00000   0.00000   0.00000  -0.00000
  49        2PY         0.00000   0.00000  -0.00000  -0.00000  -0.00000
  50        2PZ         0.00000  -0.00000   0.00000   0.00000  -0.00000
  51        3S         -0.00007  -0.00000  -0.00014  -0.00000   0.00000
  52        3PX        -0.00007  -0.00001  -0.00001  -0.00000  -0.00000
  53        3PY         0.00006   0.00006  -0.00004  -0.00000  -0.00000
  54        3PZ         0.00000   0.00000   0.00000   0.00002  -0.00006
  55        4XX         0.00001  -0.00000   0.00000   0.00000  -0.00000
  56        4YY         0.00000   0.00000   0.00001   0.00000  -0.00000
  57        4ZZ         0.00000   0.00000   0.00000  -0.00000   0.00000
  58        4XY         0.00001   0.00000   0.00000  -0.00000  -0.00000
  59        4XZ         0.00000  -0.00000   0.00000   0.00000   0.00000
  60        4YZ        -0.00000   0.00000   0.00000   0.00000   0.00000
                          46        47        48        49        50
  46 4   F  1S          2.08708
  47        2S         -0.05255   0.56329
  48        2PX         0.00000   0.00000   0.63309
  49        2PY         0.00000   0.00000  -0.00000   0.87727
  50        2PZ         0.00000   0.00000   0.00000  -0.00000   0.86272
  51        3S         -0.04064   0.44734   0.00000   0.00000   0.00000
  52        3PX         0.00000   0.00000   0.20595  -0.00000   0.00000
  53        3PY         0.00000   0.00000  -0.00000   0.29112  -0.00000
  54        3PZ         0.00000   0.00000   0.00000  -0.00000   0.29710
  55        4XX        -0.00053   0.00696   0.00000   0.00000   0.00000
  56        4YY        -0.00042   0.00230   0.00000   0.00000   0.00000
  57        4ZZ        -0.00042   0.00225   0.00000   0.00000   0.00000
  58        4XY        -0.00000   0.00000   0.00000   0.00000   0.00000
  59        4XZ         0.00000  -0.00000   0.00000   0.00000   0.00000
  60        4YZ        -0.00000   0.00000   0.00000   0.00000   0.00000
                          51        52        53        54        55
  51        3S          0.65050
  52        3PX         0.00000   0.27073
  53        3PY         0.00000  -0.00000   0.38772
  54        3PZ         0.00000   0.00000  -0.00000   0.41045
  55        4XX         0.00539   0.00000   0.00000   0.00000   0.00354
  56        4YY         0.00152   0.00000   0.00000   0.00000   0.00021
  57        4ZZ         0.00238   0.00000   0.00000   0.00000   0.00020
  58        4XY         0.00000   0.00000   0.00000   0.00000   0.00000
  59        4XZ        -0.00000   0.00000   0.00000   0.00000  -0.00000
  60        4YZ         0.00000   0.00000   0.00000   0.00000   0.00000
                          56        57        58        59        60
  56        4YY         0.00067
  57        4ZZ         0.00013   0.00030
  58        4XY         0.00000   0.00000   0.00080
  59        4XZ        -0.00000  -0.00000   0.00000   0.00087
  60        4YZ         0.00000   0.00000  -0.00000   0.00000   0.00010
     Gross orbital populations:
                           1
   1 1   F  1S          1.99320
   2        2S          0.96839
   3        2PX         0.99216
   4        2PY         1.14415
   5        2PZ         1.15953
   6        3S          0.92254
   7        3PX         0.56625
   8        3PY         0.63710
   9        3PZ         0.69389
  10        4XX         0.02893
  11        4YY         0.01684
  12        4ZZ         0.01153
  13        4XY         0.00626
  14        4XZ         0.00398
  15        4YZ         0.00189
  16 2   C  1S          1.99160
  17        2S          0.72391
  18        2PX         0.55054
  19        2PY         0.66691
  20        2PZ         0.53161
  21        3S          0.21813
  22        3PX         0.10570
  23        3PY         0.08229
  24        3PZ         0.27656
  25        4XX         0.00761
  26        4YY         0.01809
  27        4ZZ        -0.02815
  28        4XY         0.05242
  29        4XZ         0.01299
  30        4YZ         0.02040
  31 3   O  1S          1.99284
  32        2S          0.93101
  33        2PX         1.11593
  34        2PY         0.86293
  35        2PZ         0.82518
  36        3S          1.02054
  37        3PX         0.66251
  38        3PY         0.40618
  39        3PZ         0.54844
  40        4XX        -0.01336
  41        4YY         0.00552
  42        4ZZ        -0.00789
  43        4XY         0.00665
  44        4XZ         0.00009
  45        4YZ         0.01006
  46 4   F  1S          1.99338
  47        2S          0.96168
  48        2PX         0.89486
  49        2PY         1.18418
  50        2PZ         1.16896
  51        3S          0.97984
  52        3PX         0.58605
  53        3PY         0.70425
  54        3PZ         0.73112
  55        4XX         0.03160
  56        4YY         0.00771
  57        4ZZ         0.00621
  58        4XY         0.00347
  59        4XZ         0.00240
  60        4YZ         0.00044
          Condensed to atoms (all electrons):
               1          2          3          4
     1  F    8.917792   0.298813  -0.049690  -0.020275
     2  C    0.298813   4.200514   0.485040   0.246228
     3  O   -0.049690   0.485040   7.986789  -0.055521
     4  F   -0.020275   0.246228  -0.055521   9.085713
 Mulliken charges:
               1
     1  F   -0.146641
     2  C    0.769404
     3  O   -0.366618
     4  F   -0.256146
 Sum of Mulliken charges =  -0.00000
 Mulliken charges with hydrogens summed into heavy atoms:
               1
     1  F   -0.146641
     2  C    0.769404
     3  O   -0.366618
     4  F   -0.256146
 Electronic spatial extent (au):  <R**2>=            217.8192
 Charge=             -0.0000 electrons
 Dipole moment (field-independent basis, Debye):
    X=             -0.8365    Y=             -1.5395    Z=              0.1794  Tot=              1.7612
 Quadrupole moment (field-independent basis, Debye-Ang):
   XX=            -20.7185   YY=            -22.4667   ZZ=            -18.6263
   XY=              0.5569   XZ=             -0.0276   YZ=             -0.0252
 Traceless Quadrupole moment (field-independent basis, Debye-Ang):
   XX=             -0.1147   YY=             -1.8628   ZZ=              1.9776
   XY=              0.5569   XZ=             -0.0276   YZ=             -0.0252
 Octapole moment (field-independent basis, Debye-Ang**2):
  XXX=             -0.8020  YYY=             -8.3034  ZZZ=             -0.2212  XYY=              0.0452
  XXY=             -1.6560  XXZ=             -0.1937  XZZ=             -0.1210  YZZ=             -1.6769
  YYZ=             -0.1744  XYZ=             -0.0060
 Hexadecapole moment (field-independent basis, Debye-Ang**3):
 XXXX=            -95.0891 YYYY=            -92.9051 ZZZZ=            -12.1579 XXXY=              1.4283
 XXXZ=             -0.0348 YYYX=              1.5115 YYYZ=             -0.0804 ZZZX=              0.0099
 ZZZY=             -0.0160 XXYY=            -31.4109 XXZZ=            -18.1935 YYZZ=            -16.7527
 XXYZ=              0.1209 YYXZ=              0.0219 ZZXY=              0.3248
 N-N= 1.115186357924D+02 E-N=-9.641903716064D+02  KE= 3.100903480903D+02
 Orbital energies and kinetic energies (alpha):
                                 1                 2
   1         O               -24.821172         37.082374
   2         O               -24.748765         37.085757
   3         O               -19.207285         29.033427
   4         O               -10.472949         15.897292
   5         O                -1.339693          3.600291
   6         O                -1.213602          3.721046
   7         O                -1.059776          2.827560
   8         O                -0.700763          3.085332
   9         O                -0.599441          2.726770
  10         O                -0.567012          2.607274
  11         O                -0.543414          2.910486
  12         O                -0.465839          3.057454
  13         O                -0.457236          3.048621
  14         O                -0.439578          3.115981
  15         O                -0.378607          2.571956
  16         O                -0.336480          2.673551
  17         V                -0.075453          2.659121
  18         V                -0.009183          3.440233
  19         V                 0.197393          3.236268
  20         V                 0.285586          2.498529
  21         V                 0.468834          2.310733
  22         V                 0.476063          1.944647
  23         V                 0.490031          1.934649
  24         V                 0.546091          2.798607
  25         V                 0.839365          2.665018
  26         V                 0.934389          3.566295
  27         V                 0.939420          3.455118
  28         V                 1.040239          3.254045
  29         V                 1.079401          4.114829
  30         V                 1.117854          3.532069
  31         V                 1.220154          3.082643
  32         V                 1.259132          4.270789
  33         V                 1.261470          4.045248
  34         V                 1.332911          3.729516
  35         V                 1.355484          2.735425
  36         V                 1.380051          2.878452
  37         V                 1.536423          3.573161
  38         V                 1.608685          3.474361
  39         V                 1.731441          3.110870
  40         V                 1.750521          2.837011
  41         V                 1.771356          2.864677
  42         V                 1.788410          3.111688
  43         V                 1.817718          2.903767
  44         V                 1.820490          2.998516
  45         V                 1.843611          3.171934
  46         V                 1.903868          3.239802
  47         V                 1.933535          3.378476
  48         V                 1.984273          3.431040
  49         V                 2.099678          3.637065
  50         V                 2.392267          3.833385
  51         V                 2.551517          4.059901
  52         V                 2.568656          4.983267
  53         V                 2.669476          5.063089
  54         V                 2.839601          4.797380
  55         V                 2.971342          5.718314
  56         V                 3.020839          4.731785
  57         V                 3.689206         10.337144
  58         V                 4.051095         11.528526
  59         V                 4.224447          9.814853
  60         V                 4.592340         12.465141
 Total kinetic energy from orbitals= 3.100903480903D+02
 Unable to Open any file for archive entry.
 1\1\GINC-SPARTAN-BM162\SP\RB3LYP\6-31G(d)\C1F2O1\AKHALILOV\20-Mar-2025
 \0\\# B3LYP/6-31G(d) pop=full density=current\\CF2O Time step 30\\0,1\
 F,0,1.205847,-0.581293,0.049685\C,0,0.08039,0.071468,-0.067255\O,0,0.0
 00715,1.342204,-0.078086\F,0,-1.257226,-0.59386,0.058537\\Version=ES64
 L-G16RevC.01\State=1-A\HF=-312.962333\RMSD=9.943e-09\Dipole=0.3700849,
 -0.5849573,-0.0316901\Quadrupole=-0.0343092,-1.4194802,1.4537894,-0.32
 00776,0.0073352,0.220091\PG=C01 [X(C1F2O1)]\\@
 The archive entry for this job was punched.


 MORNING PEOPLE ARE USUALLY ADMIRED AS EARLY BIRDS.
 RECALL BEN FRANKLIN'S APHORISM THAT THE EARLY BIRD GETS THE WORM.
 I IDENTIFY WITH THE WORM. --  CRAIG JAGGER, MINNEAPOLIS, KS.
 Job cpu time:       0 days  0 hours  0 minutes  2.6 seconds.
 Elapsed time:       0 days  0 hours  0 minutes  0.9 seconds.
 File lengths (MBytes):  RWF=      6 Int=      0 D2E=      0 Chk=      1 Scr=      1
 Normal termination of Gaussian 16 at Thu Mar 20 00:07:57 2025.
