 Entering Gaussian System, Link 0=g16
 Input=CF2O_1000K_step0000.gjf
 Output=CF2O_1000K_step0000.log
 Initial command:
 /apps/easybuild-2022/easybuild/software/Compiler/NVHPC/22.11-CUDA-11.7.0/Gaussian/g16c01-CUDA-11.7.0/g16/l1.exe "/tmp/Gau-263607.inp" -scrdir="/tmp/"
 Default is to use a total of   4 processors:
                                4 via shared-memory
                                1 via Linda
 Entering Link 1 = /apps/easybuild-2022/easybuild/software/Compiler/NVHPC/22.11-CUDA-11.7.0/Gaussian/g16c01-CUDA-11.7.0/g16/l1.exe PID=    263608.
  
 Copyright (c) 1988-2019, Gaussian, Inc.  All Rights Reserved.
  
 This is part of the Gaussian(R) 16 program.  It is based on
 the Gaussian(R) 09 system (copyright 2009, Gaussian, Inc.),
 the Gaussian(R) 03 system (copyright 2003, Gaussian, Inc.),
 the Gaussian(R) 98 system (copyright 1998, Gaussian, Inc.),
 the Gaussian(R) 94 system (copyright 1995, Gaussian, Inc.),
 the Gaussian 92(TM) system (copyright 1992, Gaussian, Inc.),
 the Gaussian 90(TM) system (copyright 1990, Gaussian, Inc.),
 the Gaussian 88(TM) system (copyright 1988, Gaussian, Inc.),
 the Gaussian 86(TM) system (copyright 1986, Carnegie Mellon
 University), and the Gaussian 82(TM) system (copyright 1983,
 Carnegie Mellon University). Gaussian is a federally registered
 trademark of Gaussian, Inc.
  
 This software contains proprietary and confidential information,
 including trade secrets, belonging to Gaussian, Inc.
  
 This software is provided under written license and may be
 used, copied, transmitted, or stored only in accord with that
 written license.
  
 The following legend is applicable only to US Government
 contracts under FAR:
  
                    RESTRICTED RIGHTS LEGEND
  
 Use, reproduction and disclosure by the US Government is
 subject to restrictions as set forth in subparagraphs (a)
 and (c) of the Commercial Computer Software - Restricted
 Rights clause in FAR 52.227-19.
  
 Gaussian, Inc.
 340 Quinnipiac St., Bldg. 40, Wallingford CT 06492
  
  
 ---------------------------------------------------------------
 Warning -- This program may not be used in any manner that
 competes with the business of Gaussian, Inc. or will provide
 assistance to any competitor of Gaussian, Inc.  The licensee
 of this program is prohibited from giving any competitor of
 Gaussian, Inc. access to this program.  By using this program,
 the user acknowledges that Gaussian, Inc. is engaged in the
 business of creating and licensing software in the field of
 computational chemistry and represents and warrants to the
 licensee that it is not a competitor of Gaussian, Inc. and that
 it will not use this program in any manner prohibited above.
 ---------------------------------------------------------------
  

 Cite this work as:
 Gaussian 16, Revision C.01,
 M. J. Frisch, G. W. Trucks, H. B. Schlegel, G. E. Scuseria, 
 M. A. Robb, J. R. Cheeseman, G. Scalmani, V. Barone, 
 G. A. Petersson, H. Nakatsuji, X. Li, M. Caricato, A. V. Marenich, 
 J. Bloino, B. G. Janesko, R. Gomperts, B. Mennucci, H. P. Hratchian, 
 J. V. Ortiz, A. F. Izmaylov, J. L. Sonnenberg, D. Williams-Young, 
 F. Ding, F. Lipparini, F. Egidi, J. Goings, B. Peng, A. Petrone, 
 T. Henderson, D. Ranasinghe, V. G. Zakrzewski, J. Gao, N. Rega, 
 G. Zheng, W. Liang, M. Hada, M. Ehara, K. Toyota, R. Fukuda, 
 J. Hasegawa, M. Ishida, T. Nakajima, Y. Honda, O. Kitao, H. Nakai, 
 T. Vreven, K. Throssell, J. A. Montgomery, Jr., J. E. Peralta, 
 F. Ogliaro, M. J. Bearpark, J. J. Heyd, E. N. Brothers, K. N. Kudin, 
 V. N. Staroverov, T. A. Keith, R. Kobayashi, J. Normand, 
 K. Raghavachari, A. P. Rendell, J. C. Burant, S. S. Iyengar, 
 J. Tomasi, M. Cossi, J. M. Millam, M. Klene, C. Adamo, R. Cammi, 
 J. W. Ochterski, R. L. Martin, K. Morokuma, O. Farkas, 
 J. B. Foresman, and D. J. Fox, Gaussian, Inc., Wallingford CT, 2019.
 
 ******************************************
 Gaussian 16:  ES64L-G16RevC.01  3-Jul-2019
                20-Mar-2025 
 ******************************************
 %chk=CF2O_1000K_step0000.chk
 %mem=8GB
 %nprocshared=4
 Will use up to    4 processors via shared memory.
 -----------------------------------------
 # B3LYP/6-31G(d) pop=full density=current
 -----------------------------------------
 1/30=1,38=1,172=1/1;
 2/12=2,17=6,18=5,40=1/2;
 3/5=1,6=6,7=1,11=2,25=1,30=1,74=-5/1,2,3;
 4//1;
 5/5=2,38=5/2;
 6/7=3,22=-1,28=1/1;
 99/5=1,9=1/99;
 ----------------
 CF2O Time step 0
 ----------------
 Symbolic Z-matrix:
 Charge =  0 Multiplicity = 1
 F                     1.15752  -0.58124   0.03749 
 C                     0.0033    0.0861   -0.00821 
 O                     0.00484   1.3059   -0.09117 
 F                    -1.16368  -0.5726    0.04446 
 
                          Input orientation:                          
 ---------------------------------------------------------------------
 Center     Atomic      Atomic             Coordinates (Angstroms)
 Number     Number       Type             X           Y           Z
 ---------------------------------------------------------------------
      1          9           0        1.157521   -0.581235    0.037490
      2          6           0        0.003297    0.086097   -0.008212
      3          8           0        0.004836    1.305903   -0.091173
      4          9           0       -1.163675   -0.572598    0.044457
 ---------------------------------------------------------------------
                    Distance matrix (angstroms):
                    1          2          3          4
     1  F    0.000000
     2  C    1.334037   0.000000
     3  O    2.215068   1.222625   0.000000
     4  F    2.321223   1.341073   2.216434   0.000000
 Stoichiometry    CF2O
 Framework group  C1[X(CF2O)]
 Deg. of freedom     6
 Full point group                 C1      NOp   1
 Largest Abelian subgroup         C1      NOp   1
 Largest concise Abelian subgroup C1      NOp   1
                         Standard orientation:                         
 ---------------------------------------------------------------------
 Center     Atomic      Atomic             Coordinates (Angstroms)
 Number     Number       Type             X           Y           Z
 ---------------------------------------------------------------------
      1          9           0       -1.157505   -0.600437   -0.000463
      2          6           0       -0.003199    0.068312    0.002136
      3          8           0       -0.004576    1.290933   -0.000564
      4          9           0        1.163705   -0.592601   -0.000459
 ---------------------------------------------------------------------
 Rotational constants (GHZ):          12.5681282           9.8740180           5.5296899
 Standard basis: 6-31G(d) (6D, 7F)
 There are    60 symmetry adapted cartesian basis functions of A   symmetry.
 There are    60 symmetry adapted basis functions of A   symmetry.
    60 basis functions,   112 primitive gaussians,    60 cartesian basis functions
    16 alpha electrons       16 beta electrons
       nuclear repulsion energy       116.3604431140 Hartrees.
 NAtoms=    4 NActive=    4 NUniq=    4 SFac= 1.00D+00 NAtFMM=   60 NAOKFM=F Big=F
 Integral buffers will be    131072 words long.
 Raffenetti 2 integral format.
 Two-electron integral symmetry is turned on.
 One-electron integrals computed using PRISM.
 NBasis=    60 RedAO= T EigKep=  4.33D-03  NBF=    60
 NBsUse=    60 1.00D-06 EigRej= -1.00D+00 NBFU=    60
 ExpMin= 1.69D-01 ExpMax= 7.00D+03 ExpMxC= 1.05D+03 IAcc=3 IRadAn=         5 AccDes= 0.00D+00
 Harris functional with IExCor=  402 and IRadAn=       5 diagonalized for initial guess.
 HarFok:  IExCor=  402 AccDes= 0.00D+00 IRadAn=         5 IDoV= 1 UseB2=F ITyADJ=14
 ICtDFT=  3500011 ScaDFX=  1.000000  1.000000  1.000000  1.000000
 FoFCou: FMM=F IPFlag=           0 FMFlag=      100000 FMFlg1=           0
         NFxFlg=           0 DoJE=T BraDBF=F KetDBF=T FulRan=T
         wScrn=  0.000000 ICntrl=       500 IOpCl=  0 I1Cent=   200000004 NGrid=           0
         NMat0=    1 NMatS0=      1 NMatT0=    0 NMatD0=    1 NMtDS0=    0 NMtDT0=    0
 Petite list used in FoFCou.
 Keep R1 ints in memory in canonical form, NReq=5215649.
 Requested convergence on RMS density matrix=1.00D-08 within 128 cycles.
 Requested convergence on MAX density matrix=1.00D-06.
 Requested convergence on             energy=1.00D-06.
 No special actions if energy rises.
 Integral accuracy reduced to 1.0D-05 until final iterations.
 Initial convergence to 1.0D-05 achieved.  Increase integral accuracy.
 SCF Done:  E(RB3LYP) =  -312.995291907     A.U. after   13 cycles
            NFock= 13  Conv=0.83D-08     -V/T= 2.0082

 **********************************************************************

            Population analysis using the SCF Density.

 **********************************************************************

 Orbital symmetries:
       Occupied  (A) (A) (A) (A) (A) (A) (A) (A) (A) (A) (A) (A)
                 (A) (A) (A) (A)
       Virtual   (A) (A) (A) (A) (A) (A) (A) (A) (A) (A) (A) (A)
                 (A) (A) (A) (A) (A) (A) (A) (A) (A) (A) (A) (A)
                 (A) (A) (A) (A) (A) (A) (A) (A) (A) (A) (A) (A)
                 (A) (A) (A) (A) (A) (A) (A) (A)
 The electronic state is 1-A.
 Alpha  occ. eigenvalues --  -24.78641 -24.78356 -19.19061 -10.45822  -1.32189
 Alpha  occ. eigenvalues --   -1.27318  -1.07637  -0.69046  -0.62401  -0.56492
 Alpha  occ. eigenvalues --   -0.53653  -0.48365  -0.47511  -0.45630  -0.38082
 Alpha  occ. eigenvalues --   -0.33441
 Alpha virt. eigenvalues --   -0.03514   0.04828   0.25909   0.31110   0.46429
 Alpha virt. eigenvalues --    0.47236   0.47652   0.58719   0.83723   0.94515
 Alpha virt. eigenvalues --    0.95262   1.04096   1.09735   1.11761   1.22131
 Alpha virt. eigenvalues --    1.26836   1.28196   1.33693   1.35506   1.37231
 Alpha virt. eigenvalues --    1.60134   1.64263   1.74525   1.76279   1.77698
 Alpha virt. eigenvalues --    1.79477   1.81142   1.85094   1.90422   1.91964
 Alpha virt. eigenvalues --    1.95602   2.08434   2.12097   2.54162   2.59684
 Alpha virt. eigenvalues --    2.71168   2.75513   2.96464   3.02579   3.06589
 Alpha virt. eigenvalues --    3.75308   4.15235   4.42588   4.61545
     Molecular Orbital Coefficients:
                           1         2         3         4         5
                           O         O         O         O         O
     Eigenvalues --   -24.78641 -24.78356 -19.19061 -10.45822  -1.32189
   1 1   F  1S          0.99298  -0.00001   0.00000   0.00003  -0.15586
   2        2S          0.01955   0.00029   0.00003   0.00062   0.35188
   3        2PX         0.00072   0.00003   0.00001   0.00012   0.07545
   4        2PY         0.00034   0.00003  -0.00005   0.00005   0.03768
   5        2PZ         0.00000   0.00000   0.00000   0.00000   0.00016
   6        3S          0.01549  -0.00086  -0.00004  -0.00199   0.31459
   7        3PX        -0.00038  -0.00019  -0.00005  -0.00176   0.04300
   8        3PY        -0.00017  -0.00020   0.00020  -0.00093   0.01837
   9        3PZ        -0.00000  -0.00000  -0.00000  -0.00000   0.00007
  10        4XX        -0.00842   0.00005   0.00008  -0.00048   0.02203
  11        4YY        -0.00815   0.00016  -0.00010   0.00026   0.00811
  12        4ZZ        -0.00803   0.00023   0.00004   0.00057   0.00603
  13        4XY        -0.00026  -0.00005  -0.00003  -0.00061   0.00894
  14        4XZ        -0.00000  -0.00000   0.00000  -0.00000   0.00004
  15        4YZ        -0.00000  -0.00000   0.00000  -0.00000   0.00002
  16 2   C  1S          0.00002   0.00002   0.00004   0.99299  -0.09700
  17        2S          0.00038   0.00036   0.00062   0.04626   0.18554
  18        2PX        -0.00055   0.00055   0.00000  -0.00004  -0.00863
  19        2PY        -0.00032  -0.00031  -0.00004  -0.00151  -0.06097
  20        2PZ        -0.00000  -0.00000   0.00000  -0.00000  -0.00032
  21        3S         -0.00046  -0.00044  -0.00324  -0.00313   0.03267
  22        3PX         0.00080  -0.00080   0.00000  -0.00004   0.00061
  23        3PY         0.00041   0.00040  -0.00228  -0.00000  -0.00046
  24        3PZ         0.00000   0.00000   0.00001  -0.00000   0.00009
  25        4XX         0.00045   0.00047   0.00001  -0.00766   0.01022
  26        4YY         0.00024   0.00025  -0.00083  -0.00814  -0.00672
  27        4ZZ        -0.00002  -0.00001   0.00004  -0.00958  -0.01949
  28        4XY         0.00018  -0.00019  -0.00000   0.00003   0.00191
  29        4XZ         0.00000  -0.00000  -0.00000   0.00000   0.00001
  30        4YZ         0.00000   0.00000   0.00000   0.00000   0.00004
  31 3   O  1S          0.00002   0.00002   0.99281  -0.00021  -0.02817
  32        2S          0.00014   0.00014   0.02581   0.00003   0.06271
  33        2PX         0.00002  -0.00002   0.00000  -0.00000  -0.00058
  34        2PY         0.00003   0.00003  -0.00124  -0.00011  -0.03746
  35        2PZ        -0.00000  -0.00000   0.00000  -0.00000   0.00005
  36        3S         -0.00048  -0.00049   0.01280  -0.00046   0.04967
  37        3PX        -0.00012   0.00012   0.00000   0.00001  -0.00049
  38        3PY         0.00024   0.00025  -0.00135   0.00097  -0.01761
  39        3PZ        -0.00000  -0.00000   0.00000  -0.00000  -0.00001
  40        4XX         0.00002   0.00002  -0.00798  -0.00008  -0.00181
  41        4YY        -0.00010  -0.00010  -0.00748  -0.00002   0.00827
  42        4ZZ         0.00010   0.00010  -0.00800   0.00001  -0.00031
  43        4XY        -0.00004   0.00004  -0.00000   0.00000   0.00026
  44        4XZ        -0.00000   0.00000   0.00000  -0.00000  -0.00000
  45        4YZ         0.00000   0.00000  -0.00000   0.00000  -0.00001
  46 4   F  1S          0.00010   0.99299   0.00000   0.00002  -0.13959
  47        2S          0.00028   0.01956   0.00003   0.00058   0.31486
  48        2PX        -0.00003  -0.00071  -0.00001  -0.00012  -0.06879
  49        2PY         0.00003   0.00032  -0.00004   0.00005   0.03274
  50        2PZ         0.00000   0.00000   0.00000   0.00000   0.00014
  51        3S         -0.00084   0.01546  -0.00003  -0.00182   0.28205
  52        3PX         0.00019   0.00038   0.00005   0.00171  -0.04065
  53        3PY        -0.00019  -0.00016   0.00020  -0.00087   0.01625
  54        3PZ        -0.00000  -0.00000  -0.00000  -0.00000   0.00006
  55        4XX         0.00004  -0.00842   0.00007  -0.00050   0.02084
  56        4YY         0.00016  -0.00814  -0.00010   0.00025   0.00699
  57        4ZZ         0.00022  -0.00803   0.00004   0.00054   0.00524
  58        4XY         0.00005   0.00026   0.00004   0.00059  -0.00828
  59        4XZ         0.00000   0.00000  -0.00000   0.00000  -0.00004
  60        4YZ        -0.00000  -0.00000   0.00000  -0.00000   0.00002
                           6         7         8         9        10
                           O         O         O         O         O
     Eigenvalues --    -1.27318  -1.07637  -0.69046  -0.62401  -0.56492
   1 1   F  1S          0.15354   0.04211   0.06898  -0.04703  -0.00002
   2        2S         -0.34734  -0.09616  -0.14258   0.09114  -0.00003
   3        2PX        -0.05411  -0.00070   0.32543  -0.26952  -0.00095
   4        2PY        -0.03468   0.02336   0.11673  -0.26991  -0.00031
   5        2PZ        -0.00015  -0.00004   0.00070  -0.00095   0.37891
   6        3S         -0.31874  -0.09748  -0.24756   0.18587   0.00025
   7        3PX        -0.02213   0.00489   0.18990  -0.14663  -0.00056
   8        3PY        -0.01590   0.01875   0.06264  -0.15947  -0.00010
   9        3PZ        -0.00008  -0.00002   0.00038  -0.00057   0.23929
  10        4XX        -0.01170  -0.00017   0.02434  -0.00945  -0.00010
  11        4YY        -0.00844   0.00121   0.00174  -0.01099  -0.00003
  12        4ZZ        -0.00639  -0.00218   0.00039  -0.00161   0.00004
  13        4XY        -0.00504   0.00490   0.00941  -0.01134  -0.00002
  14        4XZ        -0.00003  -0.00000   0.00006  -0.00005   0.01883
  15        4YZ        -0.00002   0.00001   0.00002  -0.00005   0.00889
  16 2   C  1S         -0.00452  -0.08992  -0.12355  -0.00253  -0.00023
  17        2S          0.00877   0.19403   0.29926   0.00605   0.00055
  18        2PX         0.15574  -0.00040  -0.00624   0.35948   0.00000
  19        2PY        -0.00114   0.24080  -0.20359  -0.00324   0.00013
  20        2PZ        -0.00001  -0.00036  -0.00013  -0.00000   0.31866
  21        3S          0.00181   0.02858   0.15469   0.00425   0.00024
  22        3PX        -0.00904   0.00005   0.00044   0.03275  -0.00001
  23        3PY        -0.00023  -0.01141  -0.02568  -0.00209  -0.00023
  24        3PZ         0.00000   0.00008   0.00016   0.00000   0.15559
  25        4XX         0.00046  -0.02952   0.00398  -0.00015   0.00002
  26        4YY        -0.00043   0.02253  -0.01339  -0.00006   0.00001
  27        4ZZ        -0.00082  -0.01452  -0.01311  -0.00009  -0.00013
  28        4XY        -0.02960  -0.00020   0.00078  -0.02144   0.00000
  29        4XZ        -0.00010   0.00000   0.00000  -0.00010  -0.00083
  30        4YZ         0.00000  -0.00014   0.00006   0.00000  -0.00743
  31 3   O  1S         -0.00188  -0.19434   0.05532   0.00097  -0.00001
  32        2S          0.00413   0.42692  -0.12224  -0.00230  -0.00008
  33        2PX         0.01305   0.00008  -0.00132   0.12091   0.00000
  34        2PY        -0.00229  -0.16345  -0.05025  -0.00153   0.00037
  35        2PZ         0.00000   0.00037   0.00001   0.00000   0.16090
  36        3S          0.00340   0.38729  -0.15502  -0.00214   0.00053
  37        3PX         0.00976  -0.00004  -0.00094   0.07160   0.00001
  38        3PY        -0.00095  -0.05420  -0.03248  -0.00106  -0.00002
  39        3PZ         0.00000   0.00011  -0.00001   0.00000   0.07301
  40        4XX        -0.00010  -0.00961   0.00019  -0.00005  -0.00004
  41        4YY         0.00041   0.01070   0.01113   0.00016  -0.00008
  42        4ZZ        -0.00004  -0.00606   0.00171  -0.00000   0.00001
  43        4XY        -0.00467  -0.00002   0.00022  -0.01425  -0.00000
  44        4XZ         0.00001   0.00000  -0.00000   0.00004  -0.00003
  45        4YZ        -0.00000  -0.00005  -0.00000  -0.00000  -0.01445
  46 4   F  1S         -0.16867   0.04277   0.06644   0.04968  -0.00002
  47        2S          0.38124  -0.09756  -0.13720  -0.09645  -0.00003
  48        2PX        -0.06099   0.00048  -0.31076  -0.28724   0.00089
  49        2PY         0.03709   0.02293   0.10447   0.26433  -0.00027
  50        2PZ         0.00016  -0.00004   0.00066   0.00095   0.35827
  51        3S          0.35053  -0.09933  -0.23827  -0.19572   0.00026
  52        3PX        -0.02672  -0.00481  -0.18224  -0.15779   0.00052
  53        3PY         0.01743   0.01830   0.05576   0.15632  -0.00007
  54        3PZ         0.00009  -0.00002   0.00036   0.00057   0.22580
  55        4XX         0.01396  -0.00009   0.02404   0.01108  -0.00010
  56        4YY         0.00901   0.00107   0.00146   0.01072  -0.00003
  57        4ZZ         0.00685  -0.00216   0.00051   0.00177   0.00004
  58        4XY        -0.00590  -0.00480  -0.00876  -0.01148   0.00001
  59        4XZ        -0.00003   0.00000  -0.00006  -0.00005  -0.01800
  60        4YZ         0.00002   0.00001   0.00002   0.00004   0.00819
                          11        12        13        14        15
                           O         O         O         O         O
     Eigenvalues --    -0.53653  -0.48365  -0.47511  -0.45630  -0.38082
   1 1   F  1S          0.00300  -0.00003  -0.00012  -0.00181  -0.00002
   2        2S          0.00037  -0.00001  -0.00910   0.00396   0.00002
   3        2PX         0.18011  -0.00085   0.35036  -0.01564   0.00037
   4        2PY        -0.30459   0.00231  -0.32185   0.32317   0.00074
   5        2PZ         0.00028  -0.47147  -0.00230   0.00065  -0.25075
   6        3S         -0.03544   0.00026   0.04316   0.02569   0.00017
   7        3PX         0.10564  -0.00054   0.23769  -0.00969   0.00035
   8        3PY        -0.19699   0.00162  -0.20729   0.20821   0.00039
   9        3PZ         0.00013  -0.32598  -0.00154   0.00048  -0.18213
  10        4XX         0.01311  -0.00006   0.00936  -0.00443   0.00001
  11        4YY        -0.00672   0.00007  -0.01658   0.00235  -0.00002
  12        4ZZ         0.00217  -0.00010  -0.00517  -0.00072  -0.00003
  13        4XY        -0.01058   0.00007  -0.00492   0.00459  -0.00000
  14        4XZ         0.00002  -0.01638  -0.00005   0.00001  -0.00460
  15        4YZ        -0.00003  -0.00937  -0.00008   0.00001   0.00089
  16 2   C  1S          0.04591   0.00000  -0.00168   0.04564  -0.00010
  17        2S         -0.12544  -0.00001   0.00471  -0.12175   0.00015
  18        2PX        -0.00177   0.00010  -0.02129   0.00157  -0.00000
  19        2PY        -0.21398  -0.00005   0.01067  -0.23795  -0.00030
  20        2PZ         0.00020   0.00705   0.00004  -0.00030   0.25485
  21        3S         -0.09030  -0.00000   0.00133  -0.03487   0.00121
  22        3PX         0.00166   0.00018   0.08795   0.00278  -0.00000
  23        3PY        -0.13606  -0.00002   0.00219   0.09779   0.00090
  24        3PZ         0.00004   0.00439   0.00003  -0.00022   0.09177
  25        4XX        -0.01165   0.00000  -0.00125   0.04233   0.00002
  26        4YY         0.02616   0.00000   0.00046  -0.02143   0.00003
  27        4ZZ         0.00322  -0.00000  -0.00013   0.00195  -0.00005
  28        4XY         0.00083  -0.00025   0.03631   0.00124   0.00000
  29        4XZ        -0.00000   0.03256   0.00017   0.00000  -0.00019
  30        4YZ         0.00005   0.00027   0.00000  -0.00003   0.04009
  31 3   O  1S         -0.09392  -0.00002   0.00312  -0.05938  -0.00002
  32        2S          0.19140   0.00003  -0.00659   0.13769   0.00015
  33        2PX         0.00009  -0.00078   0.09937   0.00467   0.00000
  34        2PY         0.29086   0.00009  -0.01671   0.41960   0.00227
  35        2PZ        -0.00062   0.00600   0.00009  -0.00173   0.51520
  36        3S          0.43333   0.00009  -0.01349   0.17736  -0.00066
  37        3PX        -0.00013  -0.00069   0.05564   0.00284   0.00000
  38        3PY         0.11365   0.00004  -0.00844   0.24401   0.00169
  39        3PZ        -0.00015   0.00319   0.00005  -0.00116   0.34893
  40        4XX        -0.00890  -0.00000   0.00004   0.00797   0.00006
  41        4YY        -0.02819  -0.00001   0.00115  -0.02339  -0.00015
  42        4ZZ        -0.00325   0.00000  -0.00005   0.00533   0.00019
  43        4XY         0.00011   0.00006  -0.00265  -0.00023  -0.00000
  44        4XZ        -0.00000   0.00265   0.00001   0.00000  -0.00001
  45        4YZ         0.00006  -0.00044  -0.00001   0.00014  -0.03240
  46 4   F  1S          0.00243   0.00003  -0.00043  -0.00139  -0.00002
  47        2S          0.00148   0.00001   0.00966   0.00379   0.00002
  48        2PX        -0.15810  -0.00087   0.35712   0.02629  -0.00038
  49        2PY        -0.29520  -0.00238   0.32066   0.34115   0.00074
  50        2PZ         0.00021   0.48548   0.00233   0.00072  -0.25443
  51        3S         -0.03370  -0.00027  -0.03983   0.02120   0.00017
  52        3PX        -0.09175  -0.00055   0.24186   0.01701  -0.00036
  53        3PY        -0.19093  -0.00166   0.20689   0.22013   0.00039
  54        3PZ         0.00009   0.33493   0.00156   0.00053  -0.18467
  55        4XX         0.01212   0.00006  -0.00988  -0.00446   0.00001
  56        4YY        -0.00598  -0.00007   0.01633   0.00325  -0.00002
  57        4ZZ         0.00223   0.00010   0.00502  -0.00038  -0.00003
  58        4XY         0.01062   0.00007  -0.00525  -0.00507   0.00000
  59        4XZ        -0.00002  -0.01709  -0.00005  -0.00002   0.00472
  60        4YZ        -0.00003   0.00947   0.00008   0.00002   0.00087
                          16        17        18        19        20
                           O         V         V         V         V
     Eigenvalues --    -0.33441  -0.03514   0.04828   0.25909   0.31110
   1 1   F  1S         -0.01087   0.00073   0.06533  -0.06400   0.01438
   2        2S          0.02021  -0.00133  -0.12999   0.14388  -0.04531
   3        2PX         0.04311  -0.00350  -0.31876   0.15746  -0.16005
   4        2PY         0.19448  -0.00109  -0.08844   0.21253   0.15396
   5        2PZ         0.00012  -0.22027   0.00226   0.00113  -0.00097
   6        3S          0.08487  -0.00596  -0.54485   0.62390  -0.14549
   7        3PX         0.04132  -0.00410  -0.38448   0.26398  -0.15850
   8        3PY         0.14475  -0.00160  -0.14993   0.28419   0.22450
   9        3PZ         0.00015  -0.18533   0.00176   0.00107  -0.00094
  10        4XX        -0.00350   0.00005   0.01026   0.00227   0.01958
  11        4YY        -0.00219   0.00007   0.00051  -0.01570  -0.00352
  12        4ZZ        -0.00203   0.00035   0.02062  -0.00069  -0.02067
  13        4XY         0.00531  -0.00011  -0.00718  -0.01657   0.00307
  14        4XZ        -0.00000   0.01609  -0.00029  -0.00007   0.00020
  15        4YZ         0.00002   0.00666  -0.00016  -0.00015  -0.00006
  16 2   C  1S         -0.00012  -0.00206  -0.15467   0.00163   0.02636
  17        2S          0.00036   0.00352   0.26121   0.00828   0.16537
  18        2PX         0.07714   0.00007   0.00910   0.78021  -0.01739
  19        2PY         0.00034  -0.00313  -0.30883  -0.00865  -0.37659
  20        2PZ        -0.00000   0.63128  -0.00915   0.00006   0.00057
  21        3S         -0.00104   0.01934   1.60764  -0.07682  -1.91224
  22        3PX         0.11708   0.00000   0.00238   1.08222  -0.02736
  23        3PY        -0.00038  -0.00117  -0.13313  -0.02970  -2.07397
  24        3PZ         0.00000   0.46383  -0.00845   0.00017   0.00409
  25        4XX        -0.00029  -0.00042  -0.03480  -0.00135  -0.02966
  26        4YY         0.00019  -0.00031  -0.01189   0.00099   0.01797
  27        4ZZ        -0.00002   0.00049   0.03299  -0.00042  -0.00902
  28        4XY         0.04455  -0.00000  -0.00011   0.02938  -0.00126
  29        4XZ        -0.00002   0.00007   0.00000   0.00037  -0.00001
  30        4YZ         0.00000  -0.02497   0.00026  -0.00001  -0.00024
  31 3   O  1S         -0.00006   0.00049   0.04112  -0.00309  -0.11622
  32        2S          0.00019  -0.00085  -0.06868   0.00489   0.15290
  33        2PX         0.61709  -0.00002  -0.00281  -0.29887   0.00716
  34        2PY        -0.00018   0.00153   0.16219  -0.00681  -0.17542
  35        2PZ         0.00000  -0.41165   0.00479  -0.00000   0.00084
  36        3S          0.00055  -0.00522  -0.48076   0.05155   2.23970
  37        3PX         0.40174  -0.00002  -0.00298  -0.42190   0.01188
  38        3PY        -0.00026   0.00283   0.30699  -0.02701  -1.02160
  39        3PZ         0.00000  -0.40236   0.00486   0.00003   0.00244
  40        4XX        -0.00003   0.00013   0.01028  -0.00104  -0.05157
  41        4YY         0.00003  -0.00012  -0.00760   0.00063   0.01570
  42        4ZZ         0.00003   0.00033   0.02652  -0.00156  -0.06174
  43        4XY        -0.02789  -0.00000  -0.00017  -0.03064   0.00071
  44        4XZ         0.00008   0.00003   0.00000   0.00019  -0.00001
  45        4YZ        -0.00000  -0.00633   0.00029  -0.00001  -0.00015
  46 4   F  1S          0.01085   0.00073   0.06566   0.06258   0.01082
  47        2S         -0.02025  -0.00134  -0.13130  -0.14249  -0.03757
  48        2PX         0.04611   0.00355   0.32352   0.16534   0.15072
  49        2PY        -0.19752  -0.00109  -0.08952  -0.20339   0.16450
  50        2PZ        -0.00012  -0.21832   0.00222  -0.00119  -0.00090
  51        3S         -0.08443  -0.00592  -0.54288  -0.60118  -0.10661
  52        3PX         0.04389   0.00414   0.38883   0.26224   0.14128
  53        3PY        -0.14659  -0.00159  -0.14957  -0.26584   0.23875
  54        3PZ        -0.00015  -0.18333   0.00173  -0.00110  -0.00087
  55        4XX         0.00317   0.00005   0.00981  -0.00005   0.01930
  56        4YY         0.00227   0.00007   0.00059   0.01444  -0.00437
  57        4ZZ         0.00201   0.00035   0.02017  -0.00151  -0.02063
  58        4XY         0.00540   0.00011   0.00697  -0.01772  -0.00193
  59        4XZ        -0.00000  -0.01602   0.00029  -0.00009  -0.00019
  60        4YZ        -0.00002   0.00644  -0.00016   0.00015  -0.00007
                          21        22        23        24        25
                           V         V         V         V         V
     Eigenvalues --     0.46429   0.47236   0.47652   0.58719   0.83723
   1 1   F  1S          0.01976  -0.00023  -0.03132  -0.00071   0.00168
   2        2S         -0.01101   0.00005   0.00179  -0.03253   0.06426
   3        2PX         0.15643  -0.00098  -0.20377   0.03702  -0.06784
   4        2PY         0.17185  -0.00142  -0.04356   0.01973   0.11335
   5        2PZ        -0.00024  -0.11458   0.00023   0.00019  -0.00046
   6        3S         -0.58762   0.00605   0.84730   0.02244  -0.11770
   7        3PX        -0.26550   0.00282   0.14768  -0.03309   0.01586
   8        3PY        -0.01615   0.00055   0.23032  -0.11154  -0.06536
   9        3PZ        -0.00134  -0.13864   0.00073   0.00004   0.00018
  10        4XX        -0.10169   0.00087   0.03716   0.00831   0.05162
  11        4YY         0.02221  -0.00017   0.00618  -0.05952  -0.00235
  12        4ZZ         0.05206  -0.00065  -0.05406  -0.00606   0.01260
  13        4XY        -0.06481   0.00068   0.08050  -0.05305  -0.02397
  14        4XZ        -0.00061  -0.03308   0.00027   0.00011   0.00018
  15        4YZ        -0.00035  -0.02195   0.00013  -0.00007  -0.00004
  16 2   C  1S          0.03404  -0.00011  -0.00146   0.06755   0.04276
  17        2S         -1.04243   0.00561   0.00597  -0.95652   0.46794
  18        2PX         0.00183   0.00012  -0.73156  -0.00285  -0.00162
  19        2PY         0.58626  -0.00446  -0.00053  -0.75082   0.28362
  20        2PZ        -0.00676  -0.92408  -0.00017   0.00103  -0.00081
  21        3S          1.71380  -0.01339  -0.00464   1.30525   0.08114
  22        3PX         0.01762  -0.00049   2.08217   0.00585   0.00011
  23        3PY        -1.19581   0.00941   0.00497   1.01314  -0.03483
  24        3PZ         0.00770   1.36203   0.00024  -0.00194  -0.00001
  25        4XX         0.09254  -0.00113  -0.00091  -0.07833  -0.02529
  26        4YY        -0.04444  -0.00017  -0.00201   0.17389   0.26821
  27        4ZZ        -0.05593   0.00050   0.00122  -0.09907  -0.06019
  28        4XY         0.00245  -0.00000  -0.10657  -0.00049  -0.00041
  29        4XZ         0.00001   0.00014  -0.00018   0.00000   0.00000
  30        4YZ         0.00023  -0.00269  -0.00001  -0.00055  -0.00082
  31 3   O  1S          0.00417  -0.00008   0.00021  -0.02459   0.00980
  32        2S         -0.05797   0.00011  -0.00055   0.14403  -0.47538
  33        2PX        -0.00353   0.00005  -0.15038   0.00023   0.00218
  34        2PY         0.00948  -0.00006   0.00167  -0.49217  -0.65629
  35        2PZ        -0.00012  -0.11067  -0.00002   0.00092   0.00112
  36        3S          0.22003   0.00060  -0.00081  -0.75458   0.51848
  37        3PX        -0.00452   0.00010  -0.34726  -0.00120  -0.00276
  38        3PY         0.13767  -0.00211  -0.00046   0.08945   1.26714
  39        3PZ        -0.00094  -0.17870  -0.00003  -0.00012  -0.00241
  40        4XX        -0.01912   0.00001  -0.00054   0.06496  -0.18445
  41        4YY        -0.01650   0.00041   0.00121  -0.18583  -0.21842
  42        4ZZ        -0.00630  -0.00034  -0.00002   0.08279  -0.17637
  43        4XY        -0.00023  -0.00001   0.05622   0.00063   0.00023
  44        4XZ         0.00000  -0.00006   0.00003  -0.00000  -0.00000
  45        4YZ         0.00037   0.05533   0.00001   0.00069   0.00007
  46 4   F  1S          0.02100  -0.00025   0.03187  -0.00069   0.00166
  47        2S         -0.01727   0.00009  -0.00322  -0.03410   0.06679
  48        2PX        -0.15363   0.00103  -0.19910  -0.03966   0.06675
  49        2PY         0.16533  -0.00139   0.04042   0.01919   0.11384
  50        2PZ        -0.00028  -0.11502  -0.00027   0.00019  -0.00046
  51        3S         -0.59145   0.00636  -0.84603   0.02013  -0.12081
  52        3PX         0.27197  -0.00292   0.15378   0.03306  -0.01761
  53        3PY        -0.01942   0.00065  -0.22949  -0.11241  -0.06434
  54        3PZ        -0.00136  -0.13846  -0.00078   0.00005   0.00019
  55        4XX        -0.10348   0.00089  -0.03731   0.00566   0.05330
  56        4YY         0.02230  -0.00018  -0.00443  -0.05921  -0.00126
  57        4ZZ         0.05041  -0.00065   0.05401  -0.00639   0.01373
  58        4XY         0.06275  -0.00068   0.07865   0.05436   0.02446
  59        4XZ         0.00060   0.03247   0.00028  -0.00010  -0.00018
  60        4YZ        -0.00033  -0.02115  -0.00013  -0.00007  -0.00004
                          26        27        28        29        30
                           V         V         V         V         V
     Eigenvalues --     0.94515   0.95262   1.04096   1.09735   1.11761
   1 1   F  1S         -0.00006  -0.01217  -0.03591   0.00113   0.02867
   2        2S         -0.00118  -0.45461  -0.79450   0.02107   0.53450
   3        2PX        -0.00059   0.12889   0.45424  -0.00772  -0.21605
   4        2PY         0.00139   0.23152   0.05691  -0.00898  -0.33959
   5        2PZ         0.15332  -0.00182  -0.00056  -0.62636   0.01878
   6        3S          0.00190   0.61223   1.56578  -0.04805  -1.27178
   7        3PX         0.00045  -0.20573  -0.60915   0.01303   0.38502
   8        3PY        -0.00152  -0.30348  -0.14957   0.01009   0.38444
   9        3PZ        -0.08887   0.00131   0.00018   0.65968  -0.02015
  10        4XX        -0.00034  -0.19795  -0.36888   0.00863   0.20424
  11        4YY        -0.00070  -0.25372  -0.34603   0.00945   0.24728
  12        4ZZ        -0.00065  -0.16300  -0.39645   0.01139   0.29708
  13        4XY        -0.00029  -0.00798   0.01931  -0.00130  -0.04298
  14        4XZ        -0.02116   0.00018   0.00030   0.04631  -0.00156
  15        4YZ         0.03538   0.00028   0.00013   0.07046  -0.00196
  16 2   C  1S         -0.00004   0.00059   0.03012   0.00001   0.00007
  17        2S         -0.00003   0.00655   0.46395   0.00015   0.00231
  18        2PX         0.00001  -0.11442  -0.00546   0.01108   0.35265
  19        2PY         0.00025  -0.00312  -0.17999   0.00004   0.00252
  20        2PZ         0.07145  -0.00001  -0.00082  -0.00069   0.00003
  21        3S          0.00116  -0.00457  -0.55134  -0.00054  -0.01051
  22        3PX         0.00009  -0.57182   0.01244  -0.02729  -0.89212
  23        3PY         0.00040  -0.00163   0.05535  -0.00008  -0.00238
  24        3PZ        -0.45157  -0.00007   0.00019  -0.00186   0.00003
  25        4XX         0.00022   0.00283   0.26628   0.00008   0.00096
  26        4YY        -0.00025   0.00133   0.08304   0.00003   0.00130
  27        4ZZ         0.00018  -0.00103  -0.13385  -0.00008  -0.00216
  28        4XY         0.00000   0.02134   0.00559  -0.00739  -0.25722
  29        4XZ        -0.00080  -0.00034   0.00007  -0.23731   0.00647
  30        4YZ        -0.01827   0.00000  -0.00012   0.00139  -0.00007
  31 3   O  1S          0.00006  -0.00006  -0.00375  -0.00000   0.00003
  32        2S          0.00064  -0.00045   0.01921   0.00003   0.00295
  33        2PX         0.00012  -0.78346   0.01079  -0.01068  -0.41343
  34        2PY        -0.00153  -0.00212  -0.04632  -0.00008  -0.00255
  35        2PZ        -0.92104  -0.00014  -0.00007  -0.00169   0.00002
  36        3S         -0.00248   0.00273   0.09591   0.00012  -0.00261
  37        3PX        -0.00017   1.09284  -0.01899   0.02341   0.88212
  38        3PY         0.00259   0.00278   0.06033   0.00011   0.00565
  39        3PZ         1.20962   0.00018   0.00003   0.00213  -0.00002
  40        4XX         0.00012   0.00010   0.03888   0.00003   0.00123
  41        4YY         0.00042  -0.00055  -0.00712   0.00003   0.00186
  42        4ZZ         0.00024  -0.00066  -0.05972  -0.00007  -0.00139
  43        4XY        -0.00000   0.02953  -0.00172   0.00258   0.14317
  44        4XZ        -0.00011  -0.00040   0.00003  -0.10357   0.00278
  45        4YZ         0.02947   0.00001   0.00002  -0.00004   0.00001
  46 4   F  1S         -0.00006   0.01178  -0.03608  -0.00120  -0.03016
  47        2S         -0.00127   0.44247  -0.79966  -0.02222  -0.56037
  48        2PX         0.00055   0.12176  -0.45083  -0.00827  -0.22934
  49        2PY         0.00145  -0.23130   0.05237   0.00883   0.33177
  50        2PZ         0.15054   0.00186  -0.00084   0.62608  -0.01882
  51        3S          0.00200  -0.59121   1.57013   0.05050   1.32786
  52        3PX        -0.00038  -0.19560   0.59635   0.01340   0.39157
  53        3PY        -0.00159   0.29875  -0.14018  -0.00976  -0.36958
  54        3PZ        -0.08596  -0.00134   0.00047  -0.65805   0.02018
  55        4XX        -0.00039   0.19175  -0.37099  -0.00902  -0.21185
  56        4YY        -0.00075   0.24843  -0.34824  -0.00998  -0.25998
  57        4ZZ        -0.00068   0.15728  -0.39586  -0.01196  -0.30959
  58        4XY         0.00030  -0.00887  -0.02005  -0.00128  -0.04131
  59        4XZ         0.02098   0.00019  -0.00033   0.04913  -0.00166
  60        4YZ         0.03523  -0.00027   0.00017  -0.06952   0.00193
                          31        32        33        34        35
                           V         V         V         V         V
     Eigenvalues --     1.22131   1.26836   1.28196   1.33693   1.35506
   1 1   F  1S         -0.01716   0.00329  -0.00040  -0.03311  -0.00021
   2        2S         -0.21589  -0.01760  -0.00692  -0.51928  -0.00220
   3        2PX        -0.18589  -0.45169  -0.00069  -0.10765  -0.00051
   4        2PY         0.34343   0.40146  -0.01061  -0.45325   0.00075
   5        2PZ        -0.00314   0.00205  -0.58213   0.01299  -0.20890
   6        3S          0.63022  -0.09185   0.01397   1.16592   0.00573
   7        3PX         0.29255   0.63678   0.00237   0.23924   0.00156
   8        3PY        -0.40147  -0.51151   0.01753   0.80896  -0.00067
   9        3PZ         0.00394  -0.00270   0.83042  -0.02017   0.38719
  10        4XX        -0.15789  -0.14755  -0.00305  -0.19444  -0.00154
  11        4YY         0.09331   0.10254  -0.00111  -0.09149   0.00111
  12        4ZZ        -0.22583   0.07867  -0.00337  -0.32633  -0.00254
  13        4XY         0.05254   0.02588  -0.00232  -0.15609   0.00078
  14        4XZ         0.00003   0.00038   0.00970   0.00380  -0.28307
  15        4YZ        -0.00025   0.00032  -0.06823   0.00136  -0.25284
  16 2   C  1S         -0.02111   0.00014  -0.00070  -0.03311  -0.00001
  17        2S         -0.01480  -0.00034  -0.00298  -0.05264  -0.00002
  18        2PX         0.00543   0.13894  -0.00009  -0.00235   0.00115
  19        2PY        -0.20341   0.00271   0.00161   0.04185   0.00005
  20        2PZ         0.00071   0.00002   0.14080  -0.00256   0.00125
  21        3S         -1.85827   0.01509  -0.03165  -2.23098  -0.00096
  22        3PX        -0.01590  -0.35745   0.00037   0.00860   0.00186
  23        3PY        -0.49586   0.00211  -0.02429  -1.28381  -0.00044
  24        3PZ         0.00041  -0.00016  -0.80847   0.02142  -0.00054
  25        4XX         0.20011  -0.00120  -0.00103   0.00769  -0.00004
  26        4YY        -0.19166   0.00122  -0.00063   0.01196   0.00007
  27        4ZZ        -0.07837   0.00042  -0.00233  -0.22922  -0.00012
  28        4XY        -0.00396  -0.13374   0.00002  -0.00198  -0.00283
  29        4XZ         0.00004  -0.00114   0.00646  -0.00029   0.57833
  30        4YZ         0.00038  -0.00013  -0.25492  -0.00117   0.01270
  31 3   O  1S         -0.06322   0.00063  -0.00096  -0.06127  -0.00002
  32        2S         -1.07189   0.01333  -0.01252  -0.83787  -0.00031
  33        2PX        -0.00154   0.09650   0.00006   0.00271   0.00092
  34        2PY         0.19409  -0.00395   0.00058   0.09097   0.00004
  35        2PZ        -0.00020  -0.00001  -0.13691   0.00263  -0.00290
  36        3S          3.02186  -0.03202   0.04680   3.02578   0.00111
  37        3PX         0.00873  -0.01692  -0.00015  -0.00426  -0.00019
  38        3PY        -1.18120   0.01422  -0.01147  -0.87879  -0.00033
  39        3PZ         0.00235   0.00010   0.52020  -0.00647  -0.00157
  40        4XX        -0.22228   0.00382   0.00021   0.01180   0.00001
  41        4YY        -0.38082   0.00519  -0.00264  -0.23449  -0.00010
  42        4ZZ        -0.27433   0.00146  -0.00848  -0.48496  -0.00017
  43        4XY         0.00148  -0.01680  -0.00001  -0.00000   0.00251
  44        4XZ         0.00001  -0.00032   0.00157  -0.00010   0.19940
  45        4YZ         0.00009   0.00007   0.20811  -0.00166  -0.00763
  46 4   F  1S         -0.01759  -0.00332  -0.00039  -0.03284   0.00017
  47        2S         -0.22409   0.01427  -0.00678  -0.51871   0.00162
  48        2PX         0.16802  -0.45610   0.00122   0.12262  -0.00043
  49        2PY         0.33501  -0.42103  -0.01046  -0.45414  -0.00120
  50        2PZ        -0.00326  -0.00222  -0.57774   0.01285   0.21370
  51        3S          0.65428   0.09500   0.01347   1.15889  -0.00438
  52        3PX        -0.26567   0.63918  -0.00306  -0.25810   0.00133
  53        3PY        -0.38919   0.53753   0.01722   0.80515   0.00148
  54        3PZ         0.00407   0.00293   0.82148  -0.01981  -0.38742
  55        4XX        -0.15485   0.14834  -0.00316  -0.19961   0.00142
  56        4YY         0.08428  -0.10829  -0.00099  -0.09105  -0.00129
  57        4ZZ        -0.23161  -0.07612  -0.00318  -0.32110   0.00213
  58        4XY        -0.05531   0.03042   0.00232   0.15541   0.00103
  59        4XZ        -0.00007   0.00033  -0.01230  -0.00352  -0.27679
  60        4YZ        -0.00022  -0.00034  -0.06362   0.00108   0.24956
                          36        37        38        39        40
                           V         V         V         V         V
     Eigenvalues --     1.37231   1.60134   1.64263   1.74525   1.76279
   1 1   F  1S         -0.00056   0.02467  -0.00721   0.02035  -0.00042
   2        2S         -0.00793  -0.17204   0.16113   0.26357  -0.00571
   3        2PX        -0.00114  -0.30733   0.20509   0.14198  -0.00007
   4        2PY        -0.00422  -0.14251   0.02150  -0.20518  -0.00048
   5        2PZ        -0.21050  -0.00036   0.00097   0.00174  -0.04808
   6        3S          0.01850  -0.06174  -0.14377  -0.70421   0.01535
   7        3PX         0.00326   0.18855  -0.20589  -0.36292   0.00178
   8        3PY         0.00819   0.08740   0.16049   0.47907   0.00252
   9        3PZ         0.37603   0.00015  -0.00142  -0.00306   0.05510
  10        4XX        -0.00050   0.12339   0.37104  -0.03986  -0.00326
  11        4YY        -0.00343  -0.42493  -0.11082  -0.10219   0.00189
  12        4ZZ        -0.00575   0.26530  -0.13937   0.45998  -0.00494
  13        4XY        -0.00322  -0.05614  -0.21696   0.28011  -0.00322
  14        4XZ        -0.30296  -0.00057   0.00312  -0.00102   0.48333
  15        4YZ         0.01338  -0.00295  -0.00434  -0.00632  -0.33608
  16 2   C  1S         -0.00039  -0.00045  -0.00276   0.02814  -0.00001
  17        2S         -0.00027   0.00468   0.08030   0.02641  -0.00011
  18        2PX        -0.00004  -0.14049   0.00309   0.00310   0.00048
  19        2PY         0.00179  -0.00353   0.16755  -0.16819  -0.00003
  20        2PZ         0.02292   0.00000   0.00027   0.00064  -0.00137
  21        3S         -0.02140  -0.05480  -1.17404  -1.85504   0.00090
  22        3PX         0.00005  -0.32179   0.01101   0.01599   0.01045
  23        3PY        -0.00705  -0.04294  -0.84073  -2.29113   0.00050
  24        3PZ        -0.20753   0.00013   0.00249   0.00439   0.00093
  25        4XX        -0.00266  -0.00425  -0.31229   0.17582   0.00007
  26        4YY         0.00294  -0.00358   0.15168  -0.44919   0.00005
  27        4ZZ        -0.00267   0.00742   0.20955   0.36756  -0.00014
  28        4XY        -0.00004   0.43797  -0.00633  -0.00441  -0.00111
  29        4XZ        -0.01119   0.00248  -0.00004  -0.00006  -0.00475
  30        4YZ         0.57543   0.00008  -0.00111   0.00317   0.00240
  31 3   O  1S         -0.00038  -0.00154  -0.02408  -0.06119   0.00001
  32        2S         -0.00641  -0.02475  -0.83292  -0.86659   0.00038
  33        2PX         0.00003  -0.10640   0.00132   0.00234   0.00034
  34        2PY         0.00140   0.00072   0.33616  -0.21303  -0.00007
  35        2PZ        -0.14445  -0.00003  -0.00072  -0.00117  -0.00440
  36        3S          0.02136   0.08882   2.13759   3.68586  -0.00118
  37        3PX        -0.00005   0.10054  -0.00244  -0.00404  -0.00272
  38        3PY        -0.00689  -0.02677  -0.79164  -0.98505   0.00040
  39        3PZ        -0.00215   0.00006   0.00191   0.00418   0.00476
  40        4XX         0.00024  -0.00434  -0.53357  -0.11559   0.00032
  41        4YY        -0.00268  -0.00798  -0.26621  -0.34980   0.00008
  42        4ZZ        -0.00261  -0.00406   0.29698  -0.00016  -0.00022
  43        4XY        -0.00002  -0.39260   0.00390   0.00534   0.00270
  44        4XZ        -0.00325   0.00480  -0.00006  -0.00036   0.59976
  45        4YZ        -0.34156  -0.00006   0.00237  -0.00284  -0.01316
  46 4   F  1S         -0.00056  -0.02514  -0.00636   0.02169   0.00044
  47        2S         -0.00797   0.16888   0.16754   0.26111   0.00584
  48        2PX         0.00126  -0.31126  -0.20238  -0.12868   0.00001
  49        2PY        -0.00430   0.13299   0.01702  -0.20383   0.00054
  50        2PZ        -0.22136   0.00044   0.00097   0.00168   0.05148
  51        3S          0.01853   0.06844  -0.16818  -0.71499  -0.01580
  52        3PX        -0.00343   0.19436   0.20722   0.35113   0.00183
  53        3PY         0.00823  -0.06642   0.15849   0.47229  -0.00275
  54        3PZ         0.39081  -0.00029  -0.00143  -0.00299  -0.05900
  55        4XX        -0.00062  -0.12521   0.36987  -0.01859   0.00319
  56        4YY        -0.00340   0.42083  -0.11064  -0.11041  -0.00175
  57        4ZZ        -0.00573  -0.26404  -0.13037   0.45267   0.00508
  58        4XY         0.00324  -0.06097   0.22062  -0.26761  -0.00347
  59        4XZ         0.30829  -0.00057  -0.00291   0.00080   0.46623
  60        4YZ         0.00617   0.00281  -0.00432  -0.00648   0.27456
                          41        42        43        44        45
                           V         V         V         V         V
     Eigenvalues --     1.77698   1.79477   1.81142   1.85094   1.90422
   1 1   F  1S         -0.00002  -0.00008   0.00956  -0.05185  -0.03924
   2        2S          0.00026  -0.00101   0.52084  -0.99865  -0.34926
   3        2PX         0.00170   0.00007   0.14625  -0.15563  -0.04406
   4        2PY        -0.00242  -0.00021   0.05359   0.00379   0.22381
   5        2PZ        -0.03733  -0.01834   0.00004   0.00019  -0.00034
   6        3S         -0.00024   0.00274  -1.07143   2.43052   1.14438
   7        3PX        -0.00278   0.00021  -0.24743   0.64940   0.38040
   8        3PY         0.00635   0.00048  -0.17298   0.09932  -0.27526
   9        3PZ         0.04569   0.02196  -0.00045   0.00011   0.00100
  10        4XX         0.00020  -0.00143  -0.08388  -0.63042  -0.00959
  11        4YY        -0.00218   0.00129  -0.06118  -0.24852  -0.60688
  12        4ZZ         0.00226  -0.00102   0.52454  -0.03550   0.18617
  13        4XY        -0.00032  -0.00004   0.51094  -0.14332  -0.08828
  14        4XZ        -0.16550  -0.15107   0.00286   0.00093   0.00097
  15        4YZ         0.67255   0.42540  -0.00192  -0.00185   0.00172
  16 2   C  1S          0.00034  -0.00002   0.00004   0.02590  -0.00157
  17        2S          0.00145  -0.00012   0.00431   0.36398   0.21509
  18        2PX         0.00005   0.00005   0.08070   0.00316   0.00944
  19        2PY        -0.00085   0.00003   0.00264  -0.11869   0.20391
  20        2PZ        -0.00571  -0.00005  -0.00002  -0.00102  -0.00086
  21        3S         -0.02912   0.00155   0.00184  -1.86069  -0.74471
  22        3PX         0.00103   0.00202  -0.63815  -0.00921  -0.09816
  23        3PY        -0.02581   0.00104   0.03362   0.97560   1.04323
  24        3PZ        -0.00143   0.00035  -0.00000   0.00449   0.00138
  25        4XX         0.00123  -0.00003  -0.00676  -0.20039  -0.35013
  26        4YY        -0.00484   0.00022   0.00647   0.00054   0.28969
  27        4ZZ         0.00480  -0.00024  -0.00191   0.21460   0.06737
  28        4XY        -0.00011  -0.00011  -0.02004  -0.00031   0.00957
  29        4XZ         0.00040  -0.00658   0.00019   0.00000   0.00009
  30        4YZ        -0.02056   0.00102  -0.00004  -0.00034  -0.00178
  31 3   O  1S         -0.00066   0.00003   0.00063  -0.00660   0.02278
  32        2S         -0.01252   0.00057   0.00756   0.07999  -0.23119
  33        2PX         0.00003  -0.00024  -0.00073  -0.00043  -0.00160
  34        2PY        -0.00103   0.00004   0.00424  -0.05761   0.32992
  35        2PZ         0.08171  -0.00460   0.00002   0.00052   0.00039
  36        3S          0.04729  -0.00211  -0.03810  -0.10198  -0.33189
  37        3PX        -0.00025  -0.00019   0.14750   0.00232   0.02172
  38        3PY        -0.01390   0.00064   0.00845  -0.03531  -0.13120
  39        3PZ        -0.09831   0.00568  -0.00007  -0.00179  -0.00192
  40        4XX        -0.00653   0.00034  -0.00189  -0.46144   0.47684
  41        4YY        -0.00398   0.00017   0.00349   0.06148  -0.07254
  42        4ZZ         0.00456  -0.00025   0.00179   0.39665  -0.44429
  43        4XY         0.00014  -0.00022   0.03744  -0.00170   0.02602
  44        4XZ         0.07268   0.72082   0.00480   0.00003   0.00016
  45        4YZ         0.22899  -0.01129   0.00003  -0.00126   0.00040
  46 4   F  1S          0.00006   0.00009  -0.01145  -0.05255  -0.04483
  47        2S          0.00127   0.00120  -0.54420  -0.99836  -0.44217
  48        2PX        -0.00162   0.00016   0.15227   0.15460   0.03494
  49        2PY        -0.00228   0.00041  -0.04576   0.00269   0.19796
  50        2PZ        -0.02986   0.02228  -0.00007   0.00018  -0.00042
  51        3S         -0.00301  -0.00325   1.13476   2.43243   1.38585
  52        3PX         0.00299   0.00014  -0.27207  -0.64883  -0.39335
  53        3PY         0.00579  -0.00103   0.16034   0.09798  -0.21359
  54        3PZ         0.03663  -0.02698   0.00053   0.00012   0.00121
  55        4XX         0.00092   0.00152   0.06992  -0.64254  -0.10151
  56        4YY        -0.00244  -0.00097   0.06020  -0.25366  -0.60611
  57        4ZZ         0.00293   0.00081  -0.53640  -0.02525   0.18737
  58        4XY        -0.00002  -0.00010   0.52206   0.13547   0.09007
  59        4XZ         0.18537  -0.16824   0.00281  -0.00095  -0.00086
  60        4YZ         0.65257  -0.50453   0.00207  -0.00195   0.00163
                          46        47        48        49        50
                           V         V         V         V         V
     Eigenvalues --     1.91964   1.95602   2.08434   2.12097   2.54162
   1 1   F  1S         -0.06950   0.02471  -0.00182  -0.02114   0.00027
   2        2S         -1.09626   0.16440  -0.00423   0.02638  -0.00774
   3        2PX         0.08186  -0.03711   0.00971   0.15657  -0.00199
   4        2PY        -0.16068  -0.11800   0.00470   0.06593  -0.00190
   5        2PZ        -0.00101   0.00036   0.16987  -0.01101  -0.07317
   6        3S          2.99303  -0.67299   0.03349   0.25720   0.01361
   7        3PX         0.25500  -0.08101  -0.00020  -0.07407   0.00369
   8        3PY         0.59946   0.04148   0.00329   0.03574   0.00478
   9        3PZ         0.00293  -0.00101  -0.37688   0.02580   0.26794
  10        4XX        -0.76622  -0.17069  -0.01016  -0.14222  -0.00151
  11        4YY        -0.30621   0.54659   0.01662   0.27146   0.00023
  12        4ZZ         0.03127  -0.15024  -0.01730  -0.20681   0.00091
  13        4XY        -0.08914   0.18877  -0.01406  -0.21227   0.00215
  14        4XZ        -0.00126   0.00010  -0.57668   0.03906   0.47255
  15        4YZ        -0.00003  -0.00062  -0.26349   0.01845   0.40709
  16 2   C  1S          0.00021  -0.00020   0.00486   0.07079  -0.00007
  17        2S          0.00662   0.00860   0.01477   0.18623   0.00010
  18        2PX        -0.13364  -0.02901   0.00054   0.00844   0.00736
  19        2PY         0.01263   0.00379  -0.01413  -0.20950  -0.00028
  20        2PZ        -0.00008  -0.00001   0.35808  -0.02445  -0.01120
  21        3S         -0.03604  -0.01788  -0.07672  -0.90808   0.00014
  22        3PX         2.28701  -0.70915   0.00103   0.01423   0.01116
  23        3PY         0.09902   0.02265  -0.00841  -0.19407  -0.00047
  24        3PZ         0.00006   0.00004   0.53199  -0.03541  -0.00750
  25        4XX        -0.01794  -0.01183  -0.01970  -0.27734  -0.00018
  26        4YY         0.01952   0.00796  -0.02097  -0.33023   0.00014
  27        4ZZ         0.00181   0.00335   0.06491   0.98646  -0.00022
  28        4XY        -0.36260   0.20596  -0.00023  -0.00258   0.00284
  29        4XZ        -0.00228   0.00104   0.00179  -0.00017   0.98037
  30        4YZ        -0.00012  -0.00004  -0.07121   0.00549  -0.04798
  31 3   O  1S          0.00173   0.00055  -0.00128  -0.01609   0.00000
  32        2S         -0.00151  -0.00693   0.00504   0.10206  -0.00042
  33        2PX         0.15494  -0.25448   0.00015   0.00197   0.00059
  34        2PY         0.01846   0.00809  -0.01756  -0.27197   0.00022
  35        2PZ         0.00002   0.00001   0.11641  -0.00690   0.00072
  36        3S         -0.06236  -0.00529   0.03673   0.45595   0.00077
  37        3PX        -0.67093   0.50741  -0.00045  -0.00634  -0.00496
  38        3PY         0.00387  -0.00319  -0.00587  -0.03716  -0.00036
  39        3PZ        -0.00015  -0.00005  -0.36007   0.02502   0.01991
  40        4XX         0.02527   0.01544   0.02456   0.37355  -0.00014
  41        4YY        -0.00234  -0.00486   0.00095  -0.02080  -0.00002
  42        4ZZ        -0.02083  -0.01213  -0.02462  -0.31301   0.00007
  43        4XY        -0.15643  -0.64323   0.00047   0.00749   0.00436
  44        4XZ        -0.00183  -0.00126  -0.00182   0.00011  -0.28505
  45        4YZ        -0.00003   0.00003   0.59805  -0.04208  -0.04810
  46 4   F  1S          0.06445  -0.02691  -0.00178  -0.02062  -0.00028
  47        2S          1.03148  -0.18071  -0.00345   0.03669   0.00833
  48        2PX         0.08578  -0.03598  -0.00954  -0.15444  -0.00221
  49        2PY         0.18714   0.12914   0.00462   0.06475   0.00188
  50        2PZ         0.00094  -0.00037   0.16924  -0.01097   0.07642
  51        3S         -2.80050   0.72862   0.03097   0.22416  -0.01472
  52        3PX         0.20805  -0.09981   0.00048   0.07807   0.00436
  53        3PY        -0.62916  -0.05665   0.00271   0.02818  -0.00468
  54        3PZ        -0.00272   0.00105  -0.37436   0.02559  -0.27391
  55        4XX         0.75731   0.16867  -0.01026  -0.14439   0.00119
  56        4YY         0.23958  -0.57516   0.01678   0.27316   0.00005
  57        4ZZ        -0.01963   0.15796  -0.01691  -0.20065  -0.00078
  58        4XY        -0.06955   0.20463   0.01404   0.21240   0.00215
  59        4XZ        -0.00148   0.00007   0.58061  -0.03930   0.50780
  60        4YZ         0.00012   0.00070  -0.25972   0.01816  -0.39696
                          51        52        53        54        55
                           V         V         V         V         V
     Eigenvalues --     2.59684   2.71168   2.75513   2.96464   3.02579
   1 1   F  1S          0.00021  -0.03054  -0.03467  -0.01240  -0.02327
   2        2S         -0.00430   0.85516   0.49771   0.56225  -0.48739
   3        2PX        -0.00190   0.14184   0.17330   0.12941   0.01261
   4        2PY        -0.00027   0.15926  -0.00233   0.01671  -0.06586
   5        2PZ        -0.03298   0.00025   0.00025   0.00015   0.00016
   6        3S          0.00654  -1.63083  -0.75917  -1.12342   1.23360
   7        3PX         0.00380  -0.57816  -0.58198  -0.67606   0.56516
   8        3PY        -0.00067  -0.65539   0.10275  -0.17880   0.64687
   9        3PZ         0.13175  -0.00011  -0.00038  -0.00078   0.00127
  10        4XX         0.00142  -0.16392  -0.49087  -0.50724   0.05000
  11        4YY        -0.00162  -0.17894   0.14844   0.21283   0.20729
  12        4ZZ         0.00029   0.17440   0.10990   0.17167  -0.34190
  13        4XY        -0.00082  -0.49076   0.02976  -0.18683   0.74333
  14        4XZ         0.37979   0.00319   0.00105  -0.00120   0.00207
  15        4YZ         0.02862   0.00185   0.00118  -0.00044   0.00252
  16 2   C  1S          0.00060   0.00927  -0.08788  -0.05787   0.08524
  17        2S         -0.00042  -0.00032  -0.26943   1.88541  -0.88834
  18        2PX         0.00027  -1.04811  -0.05753  -0.00519   0.05668
  19        2PY         0.00457   0.05547  -1.11188   0.48592   0.79846
  20        2PZ         0.12187  -0.00014   0.00172  -0.00325   0.00151
  21        3S          0.00217   0.00389  -0.73101   1.92270  -1.19518
  22        3PX         0.00043  -1.42442  -0.07330  -0.01184   0.00103
  23        3PY         0.00808   0.07850  -1.42469   0.00104  -0.21055
  24        3PZ         0.08805  -0.00009   0.00147  -0.00293   0.00221
  25        4XX         0.00357   0.01200  -0.26110  -0.30627  -1.01768
  26        4YY        -0.00266  -0.00292   0.05044   0.62209   1.06741
  27        4ZZ         0.00125   0.03377  -0.16732  -0.85150   0.54969
  28        4XY         0.00021  -0.12019  -0.01439  -0.02609  -0.08135
  29        4XZ         0.05041   0.01163   0.00058   0.00007  -0.00001
  30        4YZ         1.03655  -0.00057   0.00912   0.00146   0.00005
  31 3   O  1S          0.00002   0.00016  -0.01178   0.05055  -0.01360
  32        2S          0.00765   0.05185  -0.97701   0.34653  -0.30108
  33        2PX         0.00003  -0.02460  -0.00086   0.00076   0.00301
  34        2PY        -0.00384  -0.00907   0.10810   0.29170   0.31897
  35        2PZ        -0.03269   0.00007  -0.00104  -0.00122  -0.00107
  36        3S         -0.01513  -0.13293   2.74237  -1.89435   0.55189
  37        3PX        -0.00023   0.57274   0.03402   0.00949   0.01549
  38        3PY         0.00674   0.07170  -1.45124   1.21627   0.04263
  39        3PZ        -0.35335  -0.00002   0.00171  -0.00252  -0.00068
  40        4XX         0.00230   0.02142  -0.40995   0.52268   0.11365
  41        4YY         0.00072  -0.04685   0.95493  -1.06145  -0.48055
  42        4ZZ        -0.00144   0.01981  -0.44686   0.53417   0.02793
  43        4XY         0.00021  -0.57061  -0.03769  -0.01708  -0.03594
  44        4XZ        -0.01531  -0.00026   0.00001   0.00004   0.00009
  45        4YZ         0.88776  -0.00031   0.00253   0.00630   0.00268
  46 4   F  1S          0.00018   0.03294  -0.03033  -0.00987  -0.02192
  47        2S         -0.00361  -0.92624   0.39884   0.55255  -0.45278
  48        2PX         0.00169   0.16603  -0.15488  -0.12732  -0.00739
  49        2PY        -0.00008  -0.15622  -0.02088   0.01138  -0.07234
  50        2PZ        -0.02625  -0.00028   0.00020   0.00013   0.00013
  51        3S          0.00542   1.75730  -0.57531  -1.11656   1.13919
  52        3PX        -0.00348  -0.66878   0.50880   0.67881  -0.49003
  53        3PY        -0.00105   0.63769   0.17529  -0.16354   0.60633
  54        3PZ         0.10150   0.00023  -0.00034  -0.00079   0.00106
  55        4XX         0.00158   0.23191  -0.46220  -0.51590  -0.01363
  56        4YY        -0.00161   0.14327   0.16645   0.23520   0.21870
  57        4ZZ         0.00010  -0.19805   0.09121   0.17981  -0.30675
  58        4XY         0.00095  -0.48999  -0.09014   0.17827  -0.69288
  59        4XZ        -0.32402   0.00323  -0.00072   0.00131  -0.00169
  60        4YZ        -0.01523  -0.00185   0.00101  -0.00044   0.00233
                          56        57        58        59        60
                           V         V         V         V         V
     Eigenvalues --     3.06589   3.75308   4.15235   4.42588   4.61545
   1 1   F  1S          0.02178  -0.16435  -0.31251  -0.33096  -0.56964
   2        2S          0.26346  -0.39211  -0.90316  -1.38570  -2.17113
   3        2PX        -0.02986  -0.00910  -0.19452  -0.14964  -0.21666
   4        2PY        -0.05067  -0.04673  -0.02796   0.00389  -0.20788
   5        2PZ        -0.00018   0.00038  -0.00029  -0.00006  -0.00110
   6        3S         -0.74006   2.00637   3.94508   5.13731   8.46700
   7        3PX        -0.65171   0.15091   0.30316   1.32182   0.87905
   8        3PY        -0.18950   0.28293  -0.21903   0.34528   0.90881
   9        3PZ        -0.00168  -0.00100  -0.00002   0.00183   0.00388
  10        4XX        -0.65383  -0.62032  -1.34796  -0.75973  -2.19457
  11        4YY         0.33003  -0.68826  -1.36845  -1.35933  -2.20333
  12        4ZZ         0.30744  -0.57914  -1.22083  -1.51344  -2.40516
  13        4XY        -0.34734   0.09596  -0.19289   0.38123   0.22253
  14        4XZ        -0.00342  -0.00039  -0.00057   0.00208   0.00038
  15        4YZ        -0.00106   0.00048  -0.00124   0.00045   0.00098
  16 2   C  1S          0.00467  -0.00841   0.32280  -0.34182  -0.01508
  17        2S          0.00036  -0.16947  -1.84764   1.73050   0.05153
  18        2PX        -0.79223   0.00021  -0.00738  -0.01195   0.43006
  19        2PY         0.03844   0.03227   0.15211   0.22947   0.01491
  20        2PZ         0.00000   0.00026  -0.00131   0.00294   0.00015
  21        3S         -0.03552  -2.84012  -0.33690  -1.36554  -0.08439
  22        3PX         0.03232  -0.00164  -0.02105  -0.13142   2.98242
  23        3PY        -0.01410  -1.21632   1.67638   1.56531   0.11348
  24        3PZ         0.00010   0.00575   0.00103   0.00447   0.00028
  25        4XX        -0.06994  -0.03970   1.64237  -1.82016  -0.07051
  26        4YY         0.08199   0.15243   1.37846  -1.86723  -0.07503
  27        4ZZ         0.01289   0.18872   1.12383  -0.87103  -0.03259
  28        4XY         1.39053   0.00037   0.00480  -0.00738   0.06906
  29        4XZ        -0.00039  -0.00001   0.00003   0.00010  -0.00214
  30        4YZ         0.00003   0.00003  -0.00064  -0.00098  -0.00004
  31 3   O  1S          0.00017  -0.49632   0.19854   0.13290   0.00730
  32        2S         -0.01507  -0.24407   0.37200   0.25842   0.01623
  33        2PX        -0.05782  -0.00032  -0.00063  -0.00247   0.08134
  34        2PY         0.02575   0.23442   0.01946  -0.35966  -0.01609
  35        2PZ        -0.00009  -0.00039   0.00041   0.00144   0.00008
  36        3S          0.00445   5.69029  -3.19099  -1.59844  -0.10554
  37        3PX        -0.32169   0.00187   0.00323   0.03717  -0.87414
  38        3PY         0.01988  -1.26666   1.04281  -0.01690   0.00557
  39        3PZ        -0.00009   0.00187  -0.00410  -0.00217  -0.00018
  40        4XX         0.01304  -1.73436   0.65277   0.37712   0.02013
  41        4YY        -0.04266  -1.43954   0.24979   0.77937   0.03884
  42        4ZZ         0.00947  -1.67187   0.80042   0.45165   0.02468
  43        4XY         0.70897  -0.00023   0.00050  -0.01191   0.24835
  44        4XZ        -0.00180   0.00000   0.00000   0.00007  -0.00159
  45        4YZ         0.00026  -0.00035   0.00171  -0.00126  -0.00003
  46 4   F  1S         -0.02501  -0.16595  -0.32103  -0.38010   0.52752
  47        2S         -0.30066  -0.39577  -0.92491  -1.56548   1.99288
  48        2PX        -0.02886   0.01012   0.19395   0.17309  -0.19840
  49        2PY         0.03986  -0.04646  -0.02723  -0.01602   0.20413
  50        2PZ         0.00019   0.00037  -0.00029  -0.00017   0.00108
  51        3S          0.82994   2.02426   4.05229   5.83401  -7.80432
  52        3PX        -0.67811  -0.15565  -0.31367  -1.38536   0.74343
  53        3PY         0.24391   0.28011  -0.20616   0.40652  -0.86323
  54        3PZ         0.00172  -0.00097   0.00002   0.00211  -0.00366
  55        4XX         0.63140  -0.62359  -1.38184  -0.94993   2.07689
  56        4YY        -0.30560  -0.69700  -1.39600  -1.55705   2.03228
  57        4ZZ        -0.33777  -0.58543  -1.25593  -1.72088   2.21724
  58        4XY        -0.40255  -0.09558   0.18966  -0.39148   0.18753
  59        4XZ        -0.00351   0.00037   0.00057  -0.00208   0.00019
  60        4YZ         0.00125   0.00049  -0.00121   0.00050  -0.00095
     Density Matrix:
                           1         2         3         4         5
   1 1   F  1S          2.08551
   2        2S         -0.21431   0.56648
   3        2PX         0.03159  -0.05570   0.68893
   4        2PY         0.01459  -0.02031  -0.09772   0.85654
   5        2PZ         0.00011  -0.00011  -0.00061  -0.00031   0.85749
   6        3S         -0.22718   0.56947  -0.15521  -0.07344  -0.00080
   7        3PX         0.01917  -0.03886   0.41999  -0.07905  -0.00056
   8        3PY         0.00925  -0.01544  -0.07905   0.54839  -0.00026
   9        3PZ         0.00006  -0.00007  -0.00049  -0.00024   0.58007
  10        4XX        -0.02279   0.01433   0.03663  -0.00500  -0.00001
  11        4YY        -0.01993   0.00875  -0.00512   0.02302   0.00003
  12        4ZZ        -0.01971   0.00839  -0.00028   0.00250   0.00018
  13        4XY        -0.00226   0.00442   0.00718   0.02421  -0.00001
  14        4XZ        -0.00001   0.00002   0.00004  -0.00002   0.03202
  15        4YZ        -0.00001   0.00001  -0.00002   0.00007   0.01513
  16 2   C  1S          0.00468  -0.01142  -0.07892  -0.03600  -0.00023
  17        2S          0.00236   0.00188   0.18026   0.08387   0.00055
  18        2PX         0.01302  -0.04338  -0.22495  -0.16118  -0.00071
  19        2PY         0.01009  -0.03319  -0.20231  -0.06922  -0.00050
  20        2PZ         0.00002  -0.00012  -0.00045  -0.00020   0.10703
  21        3S          0.01241  -0.02753   0.07249   0.06870  -0.00031
  22        3PX        -0.00695   0.01573   0.05594  -0.02719  -0.00061
  23        3PY        -0.00458   0.00961  -0.06619   0.13911  -0.00060
  24        3PZ        -0.00001  -0.00001  -0.00007  -0.00008   0.06775
  25        4XX        -0.00429   0.01173  -0.00221   0.03551   0.00007
  26        4YY         0.00272  -0.00511   0.00075  -0.03253  -0.00004
  27        4ZZ         0.00278  -0.00662  -0.01031  -0.00574  -0.00009
  28        4XY        -0.00820   0.01897   0.04510   0.00820   0.00013
  29        4XZ        -0.00002   0.00005   0.00013   0.00010  -0.03123
  30        4YZ        -0.00001   0.00004   0.00011   0.00003  -0.02599
  31 3   O  1S         -0.00092   0.00272   0.00194   0.01802  -0.00005
  32        2S          0.00194  -0.00503  -0.00987  -0.02619  -0.00003
  33        2PX        -0.02077   0.03610   0.05518   0.11250   0.00020
  34        2PY        -0.00929   0.02455   0.04286   0.08350  -0.00023
  35        2PZ        -0.00000  -0.00005  -0.00003  -0.00009  -0.14210
  36        3S         -0.00201   0.00390   0.04799  -0.15388   0.00096
  37        3PX        -0.01271   0.02145   0.03315   0.08277   0.00036
  38        3PY        -0.00346   0.00993   0.00433   0.08301  -0.00052
  39        3PZ        -0.00000  -0.00003   0.00012  -0.00020  -0.12267
  40        4XX        -0.00029   0.00063  -0.00353   0.01003  -0.00005
  41        4YY        -0.00031   0.00011  -0.00027   0.00493  -0.00001
  42        4ZZ        -0.00003   0.00053  -0.00028   0.00556  -0.00008
  43        4XY         0.00038  -0.00031   0.00416  -0.00128  -0.00002
  44        4XZ        -0.00000  -0.00000  -0.00001   0.00002  -0.00252
  45        4YZ         0.00000   0.00001   0.00001   0.00001   0.00572
  46 4   F  1S         -0.00023   0.00183   0.01521  -0.00596  -0.00003
  47        2S          0.00184  -0.00389  -0.02547   0.00021  -0.00010
  48        2PX        -0.01530   0.02558   0.14523  -0.01706   0.00010
  49        2PY        -0.00606  -0.00008   0.01706  -0.00024   0.00006
  50        2PZ        -0.00003  -0.00010  -0.00010   0.00006  -0.05868
  51        3S         -0.00321   0.00379  -0.09280   0.06935   0.00056
  52        3PX        -0.00749   0.01153   0.10288  -0.03053  -0.00000
  53        3PY        -0.00436   0.00031   0.00924  -0.00211   0.00029
  54        3PZ        -0.00002  -0.00007  -0.00012   0.00013  -0.05210
  55        4XX         0.00016   0.00043   0.00916  -0.00244  -0.00007
  56        4YY         0.00009  -0.00019   0.00463  -0.00938  -0.00004
  57        4ZZ         0.00061  -0.00048   0.00394  -0.00506  -0.00008
  58        4XY         0.00030  -0.00012   0.00065  -0.00056  -0.00003
  59        4XZ         0.00000   0.00000   0.00001  -0.00001   0.00011
  60        4YZ        -0.00000  -0.00000  -0.00000  -0.00001  -0.00316
                           6         7         8         9        10
   6        3S          0.63425
   7        3PX        -0.08878   0.25877
   8        3PY        -0.04092  -0.05921   0.35275
   9        3PZ        -0.00050  -0.00042  -0.00019   0.39339
  10        4XX         0.00459   0.02145  -0.00466  -0.00001   0.00333
  11        4YY         0.00384  -0.00456   0.01421   0.00002   0.00049
  12        4ZZ         0.00626  -0.00075   0.00131   0.00012   0.00058
  13        4XY         0.00047   0.00372   0.01512  -0.00001   0.00074
  14        4XZ        -0.00001   0.00002  -0.00002   0.02137   0.00000
  15        4YZ        -0.00001  -0.00002   0.00004   0.01004  -0.00000
  16 2   C  1S          0.01458  -0.05069  -0.02172  -0.00012  -0.01028
  17        2S         -0.06967   0.10731   0.04616   0.00029   0.02018
  18        2PX         0.04354  -0.11958  -0.08821  -0.00041  -0.01211
  19        2PY         0.01893  -0.11470  -0.03675  -0.00029  -0.01589
  20        2PZ         0.00016  -0.00020  -0.00011   0.05508  -0.00007
  21        3S         -0.05663   0.04267   0.04045  -0.00027   0.00682
  22        3PX         0.04561   0.04280  -0.01214  -0.00039   0.00047
  23        3PY         0.02882  -0.03891   0.09032  -0.00039  -0.00562
  24        3PZ         0.00006  -0.00002  -0.00004   0.03818  -0.00001
  25        4XX         0.01274  -0.00175   0.02246   0.00005  -0.00006
  26        4YY        -0.00458   0.00080  -0.02040  -0.00003  -0.00006
  27        4ZZ        -0.00255  -0.00612  -0.00324  -0.00005  -0.00140
  28        4XY         0.02246   0.02915   0.00597   0.00010   0.00160
  29        4XZ         0.00006   0.00008   0.00007  -0.02155   0.00000
  30        4YZ         0.00003   0.00007   0.00001  -0.01833   0.00001
  31 3   O  1S         -0.00187  -0.00083   0.00971  -0.00004  -0.00018
  32        2S          0.00623  -0.00172  -0.01167  -0.00001   0.00029
  33        2PX         0.15047   0.06157   0.10019   0.00025  -0.00518
  34        2PY         0.03354   0.02201   0.05377  -0.00021  -0.00036
  35        2PZ         0.00017   0.00013  -0.00011  -0.11457  -0.00002
  36        3S          0.00685   0.03141  -0.09361   0.00064   0.00402
  37        3PX         0.09371   0.03774   0.07118   0.00033  -0.00345
  38        3PY         0.01950   0.00122   0.05388  -0.00038  -0.00164
  39        3PZ         0.00009   0.00017  -0.00017  -0.09424  -0.00000
  40        4XX         0.00172  -0.00218   0.00641  -0.00003  -0.00037
  41        4YY        -0.00169   0.00003   0.00293  -0.00000   0.00038
  42        4ZZ         0.00067  -0.00024   0.00350  -0.00006  -0.00006
  43        4XY        -0.00725   0.00096  -0.00239  -0.00002   0.00055
  44        4XZ         0.00002  -0.00000   0.00001  -0.00174  -0.00000
  45        4YZ        -0.00001  -0.00000   0.00001   0.00518   0.00000
  46 4   F  1S         -0.00321   0.00739  -0.00430  -0.00002   0.00016
  47        2S          0.00363  -0.01142   0.00048  -0.00007   0.00045
  48        2PX         0.09379   0.10267  -0.00936   0.00012  -0.00932
  49        2PY         0.07162   0.03069  -0.00209   0.00013  -0.00272
  50        2PZ         0.00057   0.00000   0.00029  -0.05237  -0.00007
  51        3S          0.00425  -0.05877   0.04223   0.00037  -0.00485
  52        3PX         0.05966   0.07358  -0.01767   0.00004  -0.00540
  53        3PY         0.04386   0.01778  -0.00347   0.00025  -0.00199
  54        3PZ         0.00038  -0.00004   0.00025  -0.04303  -0.00005
  55        4XX        -0.00494   0.00527  -0.00182  -0.00005   0.00170
  56        4YY         0.00412   0.00425  -0.00563  -0.00002   0.00007
  57        4ZZ         0.00037   0.00283  -0.00314  -0.00005   0.00020
  58        4XY        -0.00100  -0.00017  -0.00029  -0.00002  -0.00025
  59        4XZ        -0.00002   0.00000  -0.00002   0.00081   0.00000
  60        4YZ         0.00002   0.00000  -0.00000  -0.00257  -0.00000
                          11        12        13        14        15
  11        4YY         0.00132
  12        4ZZ         0.00052   0.00037
  13        4XY         0.00083   0.00017   0.00106
  14        4XZ         0.00000   0.00001   0.00000   0.00129
  15        4YZ         0.00000   0.00000   0.00000   0.00063   0.00034
  16 2   C  1S         -0.00191   0.00048  -0.00659  -0.00003  -0.00002
  17        2S          0.00521   0.00112   0.01207   0.00006   0.00003
  18        2PX        -0.01028  -0.00335  -0.00892  -0.00005  -0.00003
  19        2PY         0.00038  -0.00261  -0.00023  -0.00004   0.00000
  20        2PZ        -0.00004   0.00001  -0.00003   0.00943   0.00599
  21        3S          0.00203   0.00001   0.00523   0.00001   0.00002
  22        3PX        -0.00401  -0.00138  -0.00026  -0.00002  -0.00002
  23        3PY         0.00214  -0.00072   0.00320  -0.00002   0.00001
  24        3PZ        -0.00001   0.00001  -0.00000   0.00487   0.00285
  25        4XX         0.00049   0.00014   0.00062   0.00000   0.00000
  26        4YY        -0.00057  -0.00006  -0.00089  -0.00000  -0.00000
  27        4ZZ        -0.00042  -0.00017  -0.00077  -0.00001  -0.00000
  28        4XY        -0.00040  -0.00009   0.00094   0.00001   0.00000
  29        4XZ         0.00000  -0.00001   0.00001  -0.00110  -0.00063
  30        4YZ        -0.00000  -0.00000  -0.00000  -0.00066  -0.00007
  31 3   O  1S         -0.00004   0.00029  -0.00003  -0.00000   0.00000
  32        2S         -0.00011  -0.00055   0.00029  -0.00000  -0.00000
  33        2PX        -0.00887  -0.00411   0.00271  -0.00000   0.00001
  34        2PY        -0.00249   0.00109  -0.00530   0.00001   0.00000
  35        2PZ        -0.00003  -0.00002  -0.00001   0.00112   0.00367
  36        3S         -0.00335   0.00052  -0.00562   0.00003  -0.00001
  37        3PX        -0.00534  -0.00257   0.00200   0.00001   0.00001
  38        3PY        -0.00059   0.00024  -0.00151  -0.00001   0.00000
  39        3PZ        -0.00002  -0.00002  -0.00001  -0.00056   0.00186
  40        4XX         0.00011  -0.00003   0.00014  -0.00000  -0.00000
  41        4YY         0.00042  -0.00004   0.00083  -0.00000   0.00000
  42        4ZZ         0.00006   0.00000   0.00009  -0.00000   0.00000
  43        4XY         0.00060   0.00025   0.00010   0.00000  -0.00000
  44        4XZ        -0.00000  -0.00000   0.00000  -0.00009  -0.00005
  45        4YZ         0.00000   0.00000  -0.00000  -0.00023  -0.00031
  46 4   F  1S          0.00007   0.00061  -0.00030  -0.00000  -0.00000
  47        2S         -0.00015  -0.00046   0.00013  -0.00000  -0.00000
  48        2PX        -0.00465  -0.00397   0.00062   0.00001   0.00000
  49        2PY        -0.00968  -0.00523   0.00054   0.00001  -0.00001
  50        2PZ        -0.00004  -0.00008   0.00003  -0.00007  -0.00319
  51        3S          0.00415   0.00039   0.00089   0.00002   0.00002
  52        3PX        -0.00429  -0.00286  -0.00017   0.00000  -0.00000
  53        3PY        -0.00584  -0.00325   0.00027   0.00002  -0.00000
  54        3PZ        -0.00002  -0.00006   0.00002  -0.00077  -0.00259
  55        4XX         0.00007   0.00020   0.00027  -0.00000  -0.00000
  56        4YY        -0.00073  -0.00028  -0.00015  -0.00000  -0.00000
  57        4ZZ        -0.00029  -0.00008  -0.00011  -0.00000  -0.00000
  58        4XY         0.00016   0.00011  -0.00020  -0.00000  -0.00000
  59        4XZ         0.00000   0.00000  -0.00000  -0.00016   0.00001
  60        4YZ        -0.00000  -0.00000   0.00000  -0.00001  -0.00003
                          16        17        18        19        20
  16 2   C  1S          2.04601
  17        2S         -0.07571   0.38892
  18        2PX         0.00001  -0.00010   0.32000
  19        2PY        -0.02554   0.06050   0.00032   0.41138
  20        2PZ        -0.00006   0.00011   0.00000  -0.00010   0.33309
  21        3S         -0.06743   0.14674   0.00109   0.00204   0.00067
  22        3PX        -0.00031   0.00056   0.03503  -0.00050  -0.00000
  23        3PY         0.00492  -0.00966  -0.00060   0.01677   0.00021
  24        3PZ        -0.00019   0.00040  -0.00000   0.00003   0.14600
  25        4XX        -0.01008  -0.01338   0.00001  -0.03224   0.00001
  26        4YY        -0.01517  -0.00386  -0.00006   0.01616   0.00004
  27        4ZZ        -0.00890  -0.02290   0.00019  -0.00156  -0.00008
  28        4XY        -0.00004   0.00019  -0.01935  -0.00058  -0.00000
  29        4XZ        -0.00000   0.00000  -0.00011  -0.00000  -0.00017
  30        4YZ        -0.00000   0.00000  -0.00000  -0.00013   0.01570
  31 3   O  1S          0.01237  -0.01352   0.00007  -0.04425   0.00012
  32        2S         -0.02853   0.03425  -0.00019   0.10016  -0.00029
  33        2PX        -0.00035   0.00094   0.18201   0.00011  -0.00001
  34        2PY         0.11395  -0.28277   0.00056  -0.37820   0.00141
  35        2PZ        -0.00048   0.00107  -0.00000   0.00099   0.36523
  36        3S          0.01411  -0.07607  -0.00003  -0.02656  -0.00020
  37        3PX        -0.00013   0.00044   0.11416   0.00010  -0.00000
  38        3PY         0.05586  -0.13495   0.00038  -0.17567   0.00081
  39        3PZ        -0.00025   0.00054  -0.00000   0.00049   0.22443
  40        4XX         0.00178  -0.00402   0.00002  -0.00447   0.00001
  41        4YY        -0.01104   0.02666  -0.00007   0.02283  -0.00014
  42        4ZZ         0.00094  -0.00194   0.00001  -0.00472   0.00010
  43        4XY         0.00002  -0.00005  -0.01590  -0.00004   0.00000
  44        4XZ        -0.00000   0.00000   0.00004   0.00000   0.00001
  45        4YZ         0.00005  -0.00010   0.00000  -0.00010  -0.02573
  46 4   F  1S          0.00443   0.00265  -0.01251   0.00964   0.00002
  47        2S         -0.01100   0.00123   0.04225  -0.03202  -0.00012
  48        2PX         0.07848  -0.17923  -0.22789   0.19996   0.00043
  49        2PY        -0.03486   0.08130   0.15769  -0.06660  -0.00019
  50        2PZ        -0.00022   0.00055   0.00071  -0.00049   0.10550
  51        3S          0.01522  -0.07002  -0.04448   0.01869   0.00016
  52        3PX         0.05052  -0.10706  -0.12193   0.11428   0.00019
  53        3PY        -0.02100   0.04477   0.08677  -0.03566  -0.00010
  54        3PZ        -0.00012   0.00029   0.00041  -0.00029   0.05450
  55        4XX        -0.01040   0.02037   0.01250  -0.01574  -0.00007
  56        4YY        -0.00186   0.00505   0.01005   0.00034  -0.00004
  57        4ZZ         0.00040   0.00118   0.00339  -0.00257   0.00001
  58        4XY         0.00645  -0.01184  -0.00883   0.00011   0.00003
  59        4XZ         0.00003  -0.00006  -0.00005   0.00004  -0.00931
  60        4YZ        -0.00002   0.00003   0.00003   0.00000   0.00580
                          21        22        23        24        25
  21        3S          0.07046
  22        3PX        -0.00008   0.04522
  23        3PY         0.00913   0.00023   0.05776
  24        3PZ         0.00037   0.00000   0.00003   0.06530
  25        4XX        -0.00059  -0.00010   0.01190  -0.00001   0.00596
[...]
  42        4ZZ         0.00013  -0.00000   0.00095  -0.00000   0.00004
  43        4XY         0.00000   0.00135   0.00000   0.00000   0.00000
  44        4XZ        -0.00000   0.00000   0.00000   0.00000   0.00000
  45        4YZ         0.00000   0.00000   0.00000   0.00179  -0.00000
  46 4   F  1S          0.00043   0.00043   0.00016   0.00000  -0.00008
  47        2S         -0.00551  -0.00515  -0.00175   0.00000   0.00190
  48        2PX         0.00663  -0.00251   0.00539   0.00000  -0.00017
  49        2PY         0.00342   0.00224   0.00723   0.00000   0.00460
  50        2PZ        -0.00000   0.00000   0.00000   0.00667   0.00000
  51        3S         -0.02446  -0.02435  -0.00846  -0.00000   0.00387
  52        3PX         0.01635  -0.00198   0.01005   0.00000  -0.00030
  53        3PY         0.00842   0.00322   0.02381   0.00000   0.00693
  54        3PZ        -0.00000   0.00000   0.00000   0.01583   0.00000
  55        4XX         0.00233  -0.00015   0.00155   0.00000  -0.00000
  56        4YY         0.00056   0.00167  -0.00032   0.00000   0.00013
  57        4ZZ         0.00001   0.00053   0.00014  -0.00000   0.00002
  58        4XY         0.00038   0.00001   0.00026   0.00000   0.00018
  59        4XZ         0.00000   0.00000   0.00000   0.00069   0.00000
  60        4YZ         0.00000   0.00000   0.00000   0.00022   0.00000
                          26        27        28        29        30
  26        4YY         0.00389
  27        4ZZ         0.00007   0.00174
  28        4XY         0.00000  -0.00000   0.00929
  29        4XZ         0.00000   0.00000   0.00000   0.00212
  30        4YZ        -0.00000  -0.00000  -0.00000   0.00000   0.00332
  31 3   O  1S         -0.00081   0.00000  -0.00000   0.00000  -0.00000
  32        2S          0.00884  -0.00051   0.00000  -0.00000   0.00000
  33        2PX         0.00000  -0.00000   0.00959   0.00000  -0.00000
  34        2PY         0.00306  -0.00079   0.00000  -0.00000   0.00000
  35        2PZ         0.00000   0.00000   0.00000   0.00000   0.00664
  36        3S          0.01479  -0.00134   0.00000  -0.00000   0.00000
  37        3PX         0.00000  -0.00000   0.00904   0.00000   0.00000
  38        3PY         0.00264  -0.00204   0.00000  -0.00000   0.00000
  39        3PZ         0.00000  -0.00000   0.00000   0.00000   0.00672
  40        4XX        -0.00025   0.00001   0.00000  -0.00000  -0.00000
  41        4YY        -0.00019  -0.00025   0.00000   0.00000   0.00000
  42        4ZZ        -0.00015   0.00002  -0.00000   0.00000   0.00000
  43        4XY         0.00000   0.00000   0.00069   0.00000   0.00000
  44        4XZ        -0.00000  -0.00000   0.00000   0.00002   0.00000
  45        4YZ         0.00000   0.00000   0.00000   0.00000   0.00092
  46 4   F  1S          0.00002   0.00000  -0.00015  -0.00000  -0.00000
  47        2S         -0.00034  -0.00012   0.00259   0.00000   0.00000
  48        2PX        -0.00003  -0.00023   0.00736   0.00000   0.00000
  49        2PY        -0.00013  -0.00007   0.00032   0.00000   0.00000
  50        2PZ        -0.00000   0.00000   0.00000   0.00223   0.00103
  51        3S         -0.00095  -0.00036   0.00337   0.00000   0.00000
  52        3PX         0.00003  -0.00157   0.00477   0.00000   0.00000
  53        3PY        -0.00136  -0.00046  -0.00025   0.00000  -0.00000
  54        3PZ        -0.00000  -0.00000   0.00000   0.00440   0.00208
  55        4XX        -0.00003  -0.00017   0.00045   0.00000   0.00000
  56        4YY        -0.00003  -0.00002  -0.00001   0.00000  -0.00000
  57        4ZZ        -0.00000  -0.00001  -0.00001   0.00000   0.00000
  58        4XY        -0.00002  -0.00007   0.00005   0.00000  -0.00000
  59        4XZ        -0.00000   0.00000   0.00000   0.00024   0.00011
  60        4YZ        -0.00000   0.00000   0.00000   0.00010   0.00000
                          31        32        33        34        35
  31 3   O  1S          2.07929
  32        2S         -0.04302   0.51492
  33        2PX         0.00000   0.00000   0.81098
  34        2PY         0.00000   0.00000   0.00000   0.58321
  35        2PZ         0.00000   0.00000  -0.00000   0.00000   0.58272
  36        3S         -0.04142   0.45086   0.00000   0.00000   0.00000
  37        3PX         0.00000   0.00000   0.26304   0.00000  -0.00000
  38        3PY         0.00000   0.00000   0.00000   0.14719   0.00000
  39        3PZ         0.00000   0.00000  -0.00000   0.00000   0.19212
  40        4XX        -0.00038  -0.00553   0.00000   0.00000   0.00000
  41        4YY        -0.00034  -0.00557   0.00000   0.00000   0.00000
  42        4ZZ        -0.00045  -0.00318   0.00000   0.00000   0.00000
  43        4XY        -0.00000  -0.00000   0.00000   0.00000   0.00000
  44        4XZ        -0.00000   0.00000   0.00000   0.00000   0.00000
  45        4YZ        -0.00000   0.00000   0.00000   0.00000   0.00000
  46 4   F  1S          0.00000   0.00000   0.00000   0.00000  -0.00000
  47        2S          0.00000  -0.00000  -0.00000  -0.00000  -0.00000
  48        2PX         0.00000  -0.00000  -0.00001  -0.00001  -0.00000
  49        2PY         0.00000  -0.00000  -0.00002  -0.00002  -0.00000
  50        2PZ         0.00000   0.00000   0.00000  -0.00000  -0.00000
  51        3S         -0.00000   0.00005  -0.00106  -0.00039   0.00000
  52        3PX        -0.00000  -0.00004  -0.00055  -0.00053   0.00000
  53        3PY         0.00002  -0.00032  -0.00225  -0.00166  -0.00000
  54        3PZ         0.00000   0.00000   0.00000  -0.00000  -0.00061
  55        4XX        -0.00000   0.00000   0.00001   0.00000  -0.00000
  56        4YY        -0.00000  -0.00000   0.00004   0.00001  -0.00000
  57        4ZZ         0.00000  -0.00000   0.00000  -0.00000   0.00000
  58        4XY        -0.00000   0.00000  -0.00001   0.00003  -0.00000
  59        4XZ         0.00000   0.00000  -0.00000   0.00000   0.00000
  60        4YZ        -0.00000   0.00000   0.00000   0.00000   0.00000
                          36        37        38        39        40
  36        3S          0.79218
  37        3PX         0.00000   0.33945
  38        3PY         0.00000   0.00000   0.15368
  39        3PZ         0.00000  -0.00000   0.00000   0.25419
  40        4XX        -0.00893   0.00000   0.00000   0.00000   0.00060
  41        4YY        -0.01907   0.00000   0.00000   0.00000   0.00001
  42        4ZZ        -0.00446   0.00000   0.00000   0.00000   0.00013
  43        4XY         0.00000   0.00000   0.00000   0.00000  -0.00000
  44        4XZ         0.00000   0.00000   0.00000   0.00000  -0.00000
  45        4YZ         0.00000   0.00000   0.00000   0.00000  -0.00000
  46 4   F  1S         -0.00000   0.00004   0.00002  -0.00000  -0.00000
  47        2S          0.00005  -0.00055  -0.00041  -0.00000   0.00000
  48        2PX         0.00039  -0.00031  -0.00015   0.00000  -0.00000
  49        2PY        -0.00210  -0.00215  -0.00287  -0.00000   0.00001
  50        2PZ        -0.00000   0.00000  -0.00000  -0.00089   0.00000
  51        3S          0.00049  -0.00806  -0.00272   0.00000   0.00003
  52        3PX         0.00231  -0.00130  -0.00039   0.00000  -0.00004
  53        3PY        -0.01153  -0.01123  -0.01027  -0.00000   0.00037
  54        3PZ        -0.00000   0.00000  -0.00000  -0.00614   0.00000
  55        4XX         0.00013   0.00011   0.00015  -0.00000  -0.00000
  56        4YY        -0.00019   0.00051   0.00006  -0.00000   0.00000
  57        4ZZ         0.00001   0.00009  -0.00001  -0.00000  -0.00000
  58        4XY        -0.00022  -0.00006   0.00012  -0.00000   0.00000
  59        4XZ        -0.00000   0.00000  -0.00000  -0.00001   0.00000
  60        4YZ         0.00000   0.00000   0.00000   0.00006   0.00000
                          41        42        43        44        45
  41        4YY         0.00341
  42        4ZZ        -0.00001   0.00029
  43        4XY        -0.00000  -0.00000   0.00202
  44        4XZ        -0.00000  -0.00000  -0.00000   0.00001
  45        4YZ         0.00000  -0.00000   0.00000  -0.00000   0.00252
  46 4   F  1S         -0.00000  -0.00000   0.00000   0.00000  -0.00000
  47        2S          0.00000   0.00000  -0.00000   0.00000  -0.00000
  48        2PX        -0.00000  -0.00000   0.00001   0.00000  -0.00000
  49        2PY         0.00001   0.00000  -0.00000  -0.00000  -0.00000
  50        2PZ         0.00000  -0.00000   0.00000   0.00000  -0.00000
  51        3S         -0.00006   0.00001  -0.00020  -0.00000   0.00000
  52        3PX        -0.00000  -0.00000   0.00003   0.00000   0.00000
  53        3PY         0.00023   0.00010  -0.00016  -0.00000  -0.00000
  54        3PZ         0.00000   0.00000   0.00000   0.00002  -0.00011
  55        4XX         0.00001  -0.00000   0.00001   0.00000  -0.00000
  56        4YY         0.00001   0.00000   0.00002   0.00000  -0.00000
  57        4ZZ        -0.00000   0.00000   0.00000  -0.00000   0.00000
  58        4XY         0.00002   0.00000   0.00000  -0.00000   0.00000
  59        4XZ         0.00000  -0.00000  -0.00000   0.00000   0.00000
  60        4YZ        -0.00000   0.00000   0.00000   0.00000   0.00000
                          46        47        48        49        50
  46 4   F  1S          2.08559
  47        2S         -0.05235   0.56605
  48        2PX         0.00000   0.00000   0.68575
  49        2PY         0.00000   0.00000   0.00000   0.85825
  50        2PZ         0.00000   0.00000  -0.00000  -0.00000   0.85758
  51        3S         -0.03912   0.43574   0.00000   0.00000   0.00000
  52        3PX         0.00000   0.00000   0.20952   0.00000  -0.00000
  53        3PY         0.00000   0.00000   0.00000   0.27524  -0.00000
  54        3PZ         0.00000   0.00000  -0.00000  -0.00000   0.29021
  55        4XX        -0.00053   0.00645   0.00000   0.00000   0.00000
  56        4YY        -0.00046   0.00381   0.00000   0.00000   0.00000
  57        4ZZ        -0.00045   0.00366   0.00000   0.00000   0.00000
  58        4XY         0.00000  -0.00000   0.00000   0.00000   0.00000
  59        4XZ        -0.00000   0.00000   0.00000   0.00000   0.00000
  60        4YZ        -0.00000   0.00000   0.00000   0.00000   0.00000
                          51        52        53        54        55
  51        3S          0.63582
  52        3PX         0.00000   0.25926
  53        3PY         0.00000   0.00000   0.35531
  54        3PZ         0.00000  -0.00000  -0.00000   0.39455
  55        4XX         0.00337   0.00000   0.00000   0.00000   0.00335
  56        4YY         0.00267   0.00000   0.00000   0.00000   0.00017
  57        4ZZ         0.00432   0.00000   0.00000   0.00000   0.00019
  58        4XY        -0.00000   0.00000   0.00000   0.00000  -0.00000
  59        4XZ        -0.00000   0.00000   0.00000   0.00000   0.00000
  60        4YZ        -0.00000   0.00000   0.00000   0.00000   0.00000
                          56        57        58        59        60
  56        4YY         0.00127
  57        4ZZ         0.00017   0.00036
  58        4XY        -0.00000  -0.00000   0.00106
  59        4XZ         0.00000   0.00000   0.00000   0.00128
  60        4YZ         0.00000   0.00000   0.00000  -0.00000   0.00031
     Gross orbital populations:
                           1
   1 1   F  1S          1.99323
   2        2S          0.96257
   3        2PX         0.97476
   4        2PY         1.16124
   5        2PZ         1.16061
   6        3S          0.93947
   7        3PX         0.56961
   8        3PY         0.65917
   9        3PZ         0.70794
  10        4XX         0.03004
  11        4YY         0.01362
  12        4ZZ         0.01004
  13        4XY         0.00571
  14        4XZ         0.00385
  15        4YZ         0.00131
  16 2   C  1S          1.99159
  17        2S          0.71476
  18        2PX         0.57810
  19        2PY         0.69622
  20        2PZ         0.55124
  21        3S          0.15459
  22        3PX         0.09935
  23        3PY         0.07767
  24        3PZ         0.26553
  25        4XX         0.01145
  26        4YY         0.01716
  27        4ZZ        -0.03049
  28        4XY         0.06605
  29        4XZ         0.01619
  30        4YZ         0.02423
  31 3   O  1S          1.99272
  32        2S          0.91898
  33        2PX         1.11785
  34        2PY         0.89754
  35        2PZ         0.83420
  36        3S          1.00442
  37        3PX         0.65579
  38        3PY         0.40294
  39        3PZ         0.54790
  40        4XX        -0.01267
  41        4YY         0.00378
  42        4ZZ        -0.00766
  43        4XY         0.00740
  44        4XZ         0.00008
  45        4YZ         0.01143
  46 4   F  1S          1.99324
  47        2S          0.96227
  48        2PX         0.97057
  49        2PY         1.16306
  50        2PZ         1.16091
  51        3S          0.94227
  52        3PX         0.57043
  53        3PY         0.66232
  54        3PZ         0.70953
  55        4XX         0.03025
  56        4YY         0.01321
  57        4ZZ         0.00980
  58        4XY         0.00560
  59        4XZ         0.00379
  60        4YZ         0.00124
          Condensed to atoms (all electrons):
               1          2          3          4
     1  F    8.982849   0.303424  -0.063616  -0.029478
     2  C    0.303424   4.088261   0.540943   0.301016
     3  O   -0.063616   0.540943   7.961418  -0.064050
     4  F   -0.029478   0.301016  -0.064050   8.990995
 Mulliken charges:
               1
     1  F   -0.193178
     2  C    0.766357
     3  O   -0.374695
     4  F   -0.198483
 Sum of Mulliken charges =  -0.00000
 Mulliken charges with hydrogens summed into heavy atoms:
               1
     1  F   -0.193178
     2  C    0.766357
     3  O   -0.374695
     4  F   -0.198483
 Electronic spatial extent (au):  <R**2>=            202.8092
 Charge=             -0.0000 electrons
 Dipole moment (field-independent basis, Debye):
    X=             -0.0303    Y=             -1.5928    Z=              0.0067  Tot=              1.5931
 Quadrupole moment (field-independent basis, Debye-Ang):
   XX=            -20.3973   YY=            -22.5574   ZZ=            -18.4326
   XY=              0.0239   XZ=             -0.0000   YZ=             -0.0004
 Traceless Quadrupole moment (field-independent basis, Debye-Ang):
   XX=              0.0651   YY=             -2.0950   ZZ=              2.0299
   XY=              0.0239   XZ=             -0.0000   YZ=             -0.0004
 Octapole moment (field-independent basis, Debye-Ang**2):
  XXX=             -0.0254  YYY=             -8.5608  ZZZ=             -0.0069  XYY=              0.0069
  XXY=             -1.6532  XXZ=             -0.0064  XZZ=             -0.0036  YZZ=             -1.6668
  YYZ=             -0.0054  XYZ=             -0.0000
 Hexadecapole moment (field-independent basis, Debye-Ang**3):
 XXXX=            -85.1010 YYYY=            -89.9974 ZZZZ=            -11.7478 XXXY=              0.0593
 XXXZ=             -0.0001 YYYX=              0.0677 YYYZ=             -0.0015 ZZZX=              0.0000
 ZZZY=             -0.0005 XXYY=            -29.0431 XXZZ=            -16.3936 YYZZ=            -16.1319
 XXYZ=              0.0040 YYXZ=              0.0000 ZZXY=              0.0142
 N-N= 1.163604431140D+02 E-N=-9.740830603816D+02  KE= 3.104573051310D+02
 Orbital energies and kinetic energies (alpha):
                                 1                 2
   1         O               -24.786410         37.082696
   2         O               -24.783560         37.082847
   3         O               -19.190615         29.030648
   4         O               -10.458219         15.893187
   5         O                -1.321887          3.440172
   6         O                -1.273178          3.811787
   7         O                -1.076371          2.858793
   8         O                -0.690464          3.075417
   9         O                -0.624009          2.918420
  10         O                -0.564918          2.377381
  11         O                -0.536533          2.841203
  12         O                -0.483645          3.290219
  13         O                -0.475106          3.320952
  14         O                -0.456298          2.978791
  15         O                -0.380820          2.552214
  16         O                -0.334415          2.673925
  17         V                -0.035139          2.621176
  18         V                 0.048280          3.466681
  19         V                 0.259086          3.467208
  20         V                 0.311105          2.229127
  21         V                 0.464288          2.226893
  22         V                 0.472361          1.858409
  23         V                 0.476515          2.016524
  24         V                 0.587190          3.264591
  25         V                 0.837234          2.639958
  26         V                 0.945147          3.555571
  27         V                 0.952618          3.466022
  28         V                 1.040961          3.301404
  29         V                 1.097353          4.456067
  30         V                 1.117611          3.279543
  31         V                 1.221313          3.040160
  32         V                 1.268357          4.256140
  33         V                 1.281963          4.129047
  34         V                 1.336927          3.546388
  35         V                 1.355064          2.660923
  36         V                 1.372307          2.801618
  37         V                 1.601337          3.696280
  38         V                 1.642632          3.368904
  39         V                 1.745248          3.222199
  40         V                 1.762792          2.831801
  41         V                 1.776982          2.848704
  42         V                 1.794774          2.837684
  43         V                 1.811420          3.169069
  44         V                 1.850939          3.231395
  45         V                 1.904216          3.582401
  46         V                 1.919644          3.395010
  47         V                 1.956016          3.351811
  48         V                 2.084336          3.525748
  49         V                 2.120970          3.803265
  50         V                 2.541622          3.847038
  51         V                 2.596836          3.889939
  52         V                 2.711680          5.822050
  53         V                 2.755130          5.334858
  54         V                 2.964644          5.438880
  55         V                 3.025794          5.165146
  56         V                 3.065889          4.739615
  57         V                 3.753078         10.518554
  58         V                 4.152351         10.937885
  59         V                 4.425876         10.700814
  60         V                 4.615451         12.925363
 Total kinetic energy from orbitals= 3.104573051310D+02
 Unable to Open any file for archive entry.
 1\1\GINC-SPARTAN-BM162\SP\RB3LYP\6-31G(d)\C1F2O1\AKHALILOV\20-Mar-2025
 \0\\# B3LYP/6-31G(d) pop=full density=current\\CF2O Time step 0\\0,1\F
 ,0,1.157521,-0.581235,0.03749\C,0,0.003297,0.086097,-0.008212\O,0,0.00
 4836,1.305903,-0.091173\F,0,-1.163675,-0.572598,0.044457\\Version=ES64
 L-G16RevC.01\State=1-A\HF=-312.9952919\RMSD=8.285e-09\Dipole=0.0118222
 ,-0.6253059,0.0412128\Quadrupole=0.0484169,-1.542461,1.494044,-0.01761
 14,0.0059768,0.2146792\PG=C01 [X(C1F2O1)]\\@
 The archive entry for this job was punched.


 NO MATTER HOW THIN YOU SLICE IT, IT'S STILL BALONEY

                                   -- ALFRED E. SMITH
 Job cpu time:       0 days  0 hours  0 minutes  2.6 seconds.
 Elapsed time:       0 days  0 hours  0 minutes  0.9 seconds.
 File lengths (MBytes):  RWF=      6 Int=      0 D2E=      0 Chk=      1 Scr=      1
 Normal termination of Gaussian 16 at Thu Mar 20 00:07:20 2025.
