 Entering Gaussian System, Link 0=g16
 Input=CF2O_1000K_step0015.gjf
 Output=CF2O_1000K_step0015.log
 Initial command:
 /apps/easybuild-2022/easybuild/software/Compiler/NVHPC/22.11-CUDA-11.7.0/Gaussian/g16c01-CUDA-11.7.0/g16/l1.exe "/tmp/Gau-264474.inp" -scrdir="/tmp/"
 Default is to use a total of   4 processors:
                                4 via shared-memory
                                1 via Linda
 Entering Link 1 = /apps/easybuild-2022/easybuild/software/Compiler/NVHPC/22.11-CUDA-11.7.0/Gaussian/g16c01-CUDA-11.7.0/g16/l1.exe PID=    264475.
  
 Copyright (c) 1988-2019, Gaussian, Inc.  All Rights Reserved.
  
 This is part of the Gaussian(R) 16 program.  It is based on
 the Gaussian(R) 09 system (copyright 2009, Gaussian, Inc.),
 the Gaussian(R) 03 system (copyright 2003, Gaussian, Inc.),
 the Gaussian(R) 98 system (copyright 1998, Gaussian, Inc.),
 the Gaussian(R) 94 system (copyright 1995, Gaussian, Inc.),
 the Gaussian 92(TM) system (copyright 1992, Gaussian, Inc.),
 the Gaussian 90(TM) system (copyright 1990, Gaussian, Inc.),
 the Gaussian 88(TM) system (copyright 1988, Gaussian, Inc.),
 the Gaussian 86(TM) system (copyright 1986, Carnegie Mellon
 University), and the Gaussian 82(TM) system (copyright 1983,
 Carnegie Mellon University). Gaussian is a federally registered
 trademark of Gaussian, Inc.
  
 This software contains proprietary and confidential information,
 including trade secrets, belonging to Gaussian, Inc.
  
 This software is provided under written license and may be
 used, copied, transmitted, or stored only in accord with that
 written license.
  
 The following legend is applicable only to US Government
 contracts under FAR:
  
                    RESTRICTED RIGHTS LEGEND
  
 Use, reproduction and disclosure by the US Government is
 subject to restrictions as set forth in subparagraphs (a)
 and (c) of the Commercial Computer Software - Restricted
 Rights clause in FAR 52.227-19.
  
 Gaussian, Inc.
 340 Quinnipiac St., Bldg. 40, Wallingford CT 06492
  
  
 ---------------------------------------------------------------
 Warning -- This program may not be used in any manner that
 competes with the business of Gaussian, Inc. or will provide
 assistance to any competitor of Gaussian, Inc.  The licensee
 of this program is prohibited from giving any competitor of
 Gaussian, Inc. access to this program.  By using this program,
 the user acknowledges that Gaussian, Inc. is engaged in the
 business of creating and licensing software in the field of
 computational chemistry and represents and warrants to the
 licensee that it is not a competitor of Gaussian, Inc. and that
 it will not use this program in any manner prohibited above.
 ---------------------------------------------------------------
  

 Cite this work as:
 Gaussian 16, Revision C.01,
 M. J. Frisch, G. W. Trucks, H. B. Schlegel, G. E. Scuseria, 
 M. A. Robb, J. R. Cheeseman, G. Scalmani, V. Barone, 
 G. A. Petersson, H. Nakatsuji, X. Li, M. Caricato, A. V. Marenich, 
 J. Bloino, B. G. Janesko, R. Gomperts, B. Mennucci, H. P. Hratchian, 
 J. V. Ortiz, A. F. Izmaylov, J. L. Sonnenberg, D. Williams-Young, 
 F. Ding, F. Lipparini, F. Egidi, J. Goings, B. Peng, A. Petrone, 
 T. Henderson, D. Ranasinghe, V. G. Zakrzewski, J. Gao, N. Rega, 
 G. Zheng, W. Liang, M. Hada, M. Ehara, K. Toyota, R. Fukuda, 
 J. Hasegawa, M. Ishida, T. Nakajima, Y. Honda, O. Kitao, H. Nakai, 
 T. Vreven, K. Throssell, J. A. Montgomery, Jr., J. E. Peralta, 
 F. Ogliaro, M. J. Bearpark, J. J. Heyd, E. N. Brothers, K. N. Kudin, 
 V. N. Staroverov, T. A. Keith, R. Kobayashi, J. Normand, 
 K. Raghavachari, A. P. Rendell, J. C. Burant, S. S. Iyengar, 
 J. Tomasi, M. Cossi, J. M. Millam, M. Klene, C. Adamo, R. Cammi, 
 J. W. Ochterski, R. L. Martin, K. Morokuma, O. Farkas, 
 J. B. Foresman, and D. J. Fox, Gaussian, Inc., Wallingford CT, 2019.
 
 ******************************************
 Gaussian 16:  ES64L-G16RevC.01  3-Jul-2019
                20-Mar-2025 
 ******************************************
 %chk=CF2O_1000K_step0015.chk
 %mem=8GB
 %nprocshared=4
 Will use up to    4 processors via shared memory.
 -----------------------------------------
 # B3LYP/6-31G(d) pop=full density=current
 -----------------------------------------
 1/30=1,38=1,172=1/1;
 2/12=2,17=6,18=5,40=1/2;
 3/5=1,6=6,7=1,11=2,25=1,30=1,74=-5/1,2,3;
 4//1;
 5/5=2,38=5/2;
 6/7=3,22=-1,28=1/1;
 99/5=1,9=1/99;
 -----------------
 CF2O Time step 15
 -----------------
 Symbolic Z-matrix:
 Charge =  0 Multiplicity = 1
 F                     1.18265  -0.58079   0.04364 
 C                     0.04376   0.07349  -0.03802 
 O                     0.00252   1.32744  -0.08461 
 F                    -1.21242  -0.58321   0.05161 
 
                          Input orientation:                          
 ---------------------------------------------------------------------
 Center     Atomic      Atomic             Coordinates (Angstroms)
 Number     Number       Type             X           Y           Z
 ---------------------------------------------------------------------
      1          9           0        1.182654   -0.580791    0.043635
      2          6           0        0.043764    0.073494   -0.038015
      3          8           0        0.002524    1.327435   -0.084613
      4          9           0       -1.212422   -0.583209    0.051613
 ---------------------------------------------------------------------
                    Distance matrix (angstroms):
                    1          2          3          4
     1  F    0.000000
     2  C    1.315989   0.000000
     3  O    2.247327   1.255484   0.000000
     4  F    2.395091   1.420315   2.268306   0.000000
 Stoichiometry    CF2O
 Framework group  C1[X(CF2O)]
 Deg. of freedom     6
 Full point group                 C1      NOp   1
 Largest Abelian subgroup         C1      NOp   1
 Largest concise Abelian subgroup C1      NOp   1
                         Standard orientation:                         
 ---------------------------------------------------------------------
 Center     Atomic      Atomic             Coordinates (Angstroms)
 Number     Number       Type             X           Y           Z
 ---------------------------------------------------------------------
      1          9           0       -1.155579   -0.650427   -0.007559
      2          6           0       -0.045828    0.055746    0.032424
      3          8           0       -0.057760    1.310510   -0.008383
      4          9           0        1.237473   -0.551634   -0.006606
 ---------------------------------------------------------------------
 Rotational constants (GHZ):          12.2310542           9.2632781           5.2728623
 Standard basis: 6-31G(d) (6D, 7F)
 There are    60 symmetry adapted cartesian basis functions of A   symmetry.
 There are    60 symmetry adapted basis functions of A   symmetry.
    60 basis functions,   112 primitive gaussians,    60 cartesian basis functions
    16 alpha electrons       16 beta electrons
       nuclear repulsion energy       113.7121241436 Hartrees.
 NAtoms=    4 NActive=    4 NUniq=    4 SFac= 1.00D+00 NAtFMM=   60 NAOKFM=F Big=F
 Integral buffers will be    131072 words long.
 Raffenetti 2 integral format.
 Two-electron integral symmetry is turned on.
 One-electron integrals computed using PRISM.
 NBasis=    60 RedAO= T EigKep=  4.38D-03  NBF=    60
 NBsUse=    60 1.00D-06 EigRej= -1.00D+00 NBFU=    60
 ExpMin= 1.69D-01 ExpMax= 7.00D+03 ExpMxC= 1.05D+03 IAcc=3 IRadAn=         5 AccDes= 0.00D+00
 Harris functional with IExCor=  402 and IRadAn=       5 diagonalized for initial guess.
 HarFok:  IExCor=  402 AccDes= 0.00D+00 IRadAn=         5 IDoV= 1 UseB2=F ITyADJ=14
 ICtDFT=  3500011 ScaDFX=  1.000000  1.000000  1.000000  1.000000
 FoFCou: FMM=F IPFlag=           0 FMFlag=      100000 FMFlg1=           0
         NFxFlg=           0 DoJE=T BraDBF=F KetDBF=T FulRan=T
         wScrn=  0.000000 ICntrl=       500 IOpCl=  0 I1Cent=   200000004 NGrid=           0
         NMat0=    1 NMatS0=      1 NMatT0=    0 NMatD0=    1 NMtDS0=    0 NMtDT0=    0
 Petite list used in FoFCou.
 Keep R1 ints in memory in canonical form, NReq=5215649.
 Requested convergence on RMS density matrix=1.00D-08 within 128 cycles.
 Requested convergence on MAX density matrix=1.00D-06.
 Requested convergence on             energy=1.00D-06.
 No special actions if energy rises.
 Integral accuracy reduced to 1.0D-05 until final iterations.
 Initial convergence to 1.0D-05 achieved.  Increase integral accuracy.
 SCF Done:  E(RB3LYP) =  -312.980351715     A.U. after   14 cycles
            NFock= 14  Conv=0.58D-08     -V/T= 2.0089

 **********************************************************************

            Population analysis using the SCF Density.

 **********************************************************************

 Orbital symmetries:
       Occupied  (A) (A) (A) (A) (A) (A) (A) (A) (A) (A) (A) (A)
                 (A) (A) (A) (A)
       Virtual   (A) (A) (A) (A) (A) (A) (A) (A) (A) (A) (A) (A)
                 (A) (A) (A) (A) (A) (A) (A) (A) (A) (A) (A) (A)
                 (A) (A) (A) (A) (A) (A) (A) (A) (A) (A) (A) (A)
                 (A) (A) (A) (A) (A) (A) (A) (A)
 The electronic state is 1-A.
 Alpha  occ. eigenvalues --  -24.80684 -24.76632 -19.19805 -10.46678  -1.32797
 Alpha  occ. eigenvalues --   -1.24710  -1.06308  -0.69424  -0.61321  -0.56275
 Alpha  occ. eigenvalues --   -0.53876  -0.47438  -0.47096  -0.45100  -0.37779
 Alpha  occ. eigenvalues --   -0.33370
 Alpha virt. eigenvalues --   -0.05539   0.01646   0.22640   0.29557   0.46729
 Alpha virt. eigenvalues --    0.47532   0.48046   0.55779   0.84052   0.94045
 Alpha virt. eigenvalues --    0.94663   1.04110   1.08651   1.11811   1.22309
 Alpha virt. eigenvalues --    1.26082   1.27127   1.33462   1.35727   1.37059
 Alpha virt. eigenvalues --    1.56551   1.62363   1.74658   1.75650   1.77559
 Alpha virt. eigenvalues --    1.79418   1.80292   1.83030   1.87253   1.91598
 Alpha virt. eigenvalues --    1.93624   2.03216   2.10310   2.47370   2.56752
 Alpha virt. eigenvalues --    2.63320   2.70233   2.90075   2.98922   3.03649
 Alpha virt. eigenvalues --    3.71335   4.11293   4.32132   4.60416
     Molecular Orbital Coefficients:
                           1         2         3         4         5
                           O         O         O         O         O
     Eigenvalues --   -24.80684 -24.76632 -19.19805 -10.46678  -1.32797
   1 1   F  1S          0.99298   0.00006   0.00001   0.00004  -0.20849
   2        2S          0.01951   0.00032   0.00007   0.00075   0.47289
   3        2PX         0.00073   0.00003   0.00002   0.00011   0.09323
   4        2PY         0.00039   0.00003  -0.00004   0.00006   0.05533
   5        2PZ         0.00003   0.00000   0.00000   0.00001   0.00343
   6        3S          0.01563  -0.00099  -0.00016  -0.00258   0.41908
   7        3PX        -0.00036  -0.00019  -0.00007  -0.00189   0.04671
   8        3PY        -0.00019  -0.00027   0.00019  -0.00115   0.02560
   9        3PZ        -0.00001  -0.00001  -0.00001  -0.00008   0.00161
  10        4XX        -0.00842   0.00012   0.00010  -0.00039   0.02427
  11        4YY        -0.00820   0.00015  -0.00006   0.00030   0.01228
  12        4ZZ        -0.00806   0.00027   0.00006   0.00068   0.00875
  13        4XY        -0.00027  -0.00009  -0.00002  -0.00069   0.01059
  14        4XZ        -0.00002  -0.00000   0.00000  -0.00005   0.00070
  15        4YZ        -0.00001  -0.00001   0.00000  -0.00003   0.00041
  16 2   C  1S          0.00002   0.00002   0.00003   0.99304  -0.08280
  17        2S          0.00043   0.00005   0.00065   0.04577   0.16002
  18        2PX        -0.00058   0.00042   0.00002  -0.00057  -0.08077
  19        2PY        -0.00034  -0.00021   0.00009  -0.00152  -0.06187
  20        2PZ        -0.00003  -0.00002  -0.00000  -0.00006  -0.00424
  21        3S         -0.00051  -0.00029  -0.00288  -0.00377   0.02889
  22        3PX         0.00082  -0.00077   0.00000  -0.00051   0.00625
  23        3PY         0.00051   0.00037  -0.00210  -0.00010  -0.00029
  24        3PZ         0.00001   0.00000   0.00007  -0.00003   0.00112
  25        4XX         0.00035   0.00069   0.00002  -0.00769   0.00905
  26        4YY         0.00019   0.00028  -0.00062  -0.00816  -0.00497
  27        4ZZ        -0.00004   0.00005   0.00004  -0.00939  -0.01684
  28        4XY         0.00017  -0.00025  -0.00001   0.00036   0.01777
  29        4XZ         0.00001  -0.00001  -0.00000   0.00002   0.00087
  30        4YZ         0.00001   0.00001   0.00002   0.00002   0.00065
  31 3   O  1S          0.00002   0.00003   0.99284  -0.00017  -0.02082
  32        2S          0.00015   0.00018   0.02580  -0.00007   0.04621
  33        2PX         0.00002  -0.00001  -0.00001  -0.00003  -0.00489
  34        2PY         0.00001  -0.00000  -0.00113  -0.00006  -0.02801
  35        2PZ         0.00000   0.00000   0.00005  -0.00000   0.00048
  36        3S         -0.00053  -0.00062   0.01220   0.00012   0.03782
  37        3PX        -0.00013   0.00012   0.00003   0.00012  -0.00463
  38        3PY         0.00024   0.00030  -0.00115   0.00070  -0.01472
  39        3PZ        -0.00001  -0.00001   0.00003  -0.00002  -0.00010
  40        4XX         0.00004   0.00004  -0.00789  -0.00011  -0.00146
  41        4YY        -0.00007  -0.00006  -0.00753  -0.00008   0.00703
  42        4ZZ         0.00010   0.00014  -0.00791  -0.00003  -0.00036
  43        4XY        -0.00004   0.00001  -0.00001   0.00002   0.00231
  44        4XZ        -0.00000   0.00001   0.00000  -0.00000  -0.00011
  45        4YZ         0.00000   0.00001  -0.00001   0.00001  -0.00010
  46 4   F  1S          0.00003   0.99301   0.00001  -0.00002  -0.05103
  47        2S          0.00026   0.01958   0.00006   0.00021   0.11396
  48        2PX        -0.00004  -0.00066  -0.00001  -0.00012  -0.02841
  49        2PY         0.00003   0.00023  -0.00003   0.00003   0.00880
  50        2PZ         0.00000   0.00002   0.00000   0.00000   0.00064
  51        3S         -0.00078   0.01523  -0.00009  -0.00026   0.10294
  52        3PX         0.00015   0.00031   0.00009   0.00119  -0.02256
  53        3PY        -0.00017  -0.00010   0.00016  -0.00043   0.00464
  54        3PZ        -0.00001  -0.00001  -0.00001  -0.00003   0.00020
  55        4XX         0.00008  -0.00835   0.00003  -0.00068   0.01214
  56        4YY         0.00017  -0.00804  -0.00005   0.00007   0.00142
  57        4ZZ         0.00021  -0.00797   0.00007   0.00027   0.00114
  58        4XY         0.00003   0.00021   0.00004   0.00045  -0.00382
  59        4XZ         0.00000   0.00001   0.00000   0.00004  -0.00028
  60        4YZ        -0.00000  -0.00001   0.00000  -0.00002   0.00007
                           6         7         8         9        10
                           O         O         O         O         O
     Eigenvalues --    -1.24710  -1.06308  -0.69424  -0.61321  -0.56275
   1 1   F  1S          0.06686   0.03758   0.07961   0.02838  -0.00027
   2        2S         -0.15214  -0.08588  -0.16541  -0.05292  -0.00014
   3        2PX        -0.01487   0.00132   0.38855   0.14770  -0.01819
   4        2PY        -0.01489   0.02598   0.18701   0.29926  -0.01040
   5        2PZ        -0.00105  -0.00050   0.01427   0.01352   0.49899
   6        3S         -0.14158  -0.08836  -0.28653  -0.11581   0.00233
   7        3PX        -0.00074   0.00546   0.22178   0.07381  -0.01106
   8        3PY        -0.00588   0.02076   0.10213   0.17865  -0.00561
   9        3PZ        -0.00067  -0.00033   0.00791   0.00829   0.31899
  10        4XX        -0.00117  -0.00034   0.02469   0.00014  -0.00147
  11        4YY        -0.00414   0.00222   0.00367   0.01274  -0.00056
  12        4ZZ        -0.00325  -0.00186  -0.00027   0.00132   0.00119
  13        4XY        -0.00068   0.00511   0.01265   0.01017  -0.00059
  14        4XZ        -0.00010  -0.00003   0.00109   0.00053   0.02271
  15        4YZ        -0.00012   0.00016   0.00047   0.00077   0.01255
  16 2   C  1S         -0.03962  -0.08824  -0.12304   0.03228  -0.00312
  17        2S          0.07881   0.19222   0.29929  -0.07763   0.00752
  18        2PX         0.12110  -0.00313  -0.07604  -0.34755   0.00077
  19        2PY        -0.00714   0.22601  -0.19262   0.03871   0.00085
  20        2PZ        -0.00172  -0.00516  -0.00198   0.00022   0.29852
  21        3S          0.01889   0.03245   0.16334  -0.06028   0.00329
  22        3PX        -0.00609   0.00034   0.00558  -0.04285  -0.00231
  23        3PY        -0.00356  -0.01104  -0.02338   0.02950  -0.00390
  24        3PZ         0.00052   0.00119   0.00217  -0.00029   0.14866
  25        4XX         0.00361  -0.02692   0.00413   0.00315   0.00033
  26        4YY        -0.00360   0.02271  -0.01308   0.00004   0.00023
  27        4ZZ        -0.00677  -0.01379  -0.01330   0.00091  -0.00174
  28        4XY        -0.02065  -0.00238   0.00957   0.01844   0.00022
  29        4XZ        -0.00108  -0.00002   0.00039   0.00137  -0.01103
  30        4YZ        -0.00001  -0.00188   0.00092  -0.00016  -0.00843
  31 3   O  1S         -0.01806  -0.19524   0.05677  -0.01259  -0.00055
  32        2S          0.03940   0.43222  -0.12601   0.03003  -0.00033
  33        2PX         0.01034   0.00012  -0.01432  -0.11678   0.00090
  34        2PY        -0.02101  -0.15620  -0.05255   0.02322   0.00569
  35        2PZ         0.00046   0.00517   0.00036  -0.00042   0.14178
  36        3S          0.03448   0.39885  -0.16366   0.02817   0.00885
  37        3PX         0.00805  -0.00080  -0.01068  -0.06926   0.00143
  38        3PY        -0.00929  -0.05657  -0.03079   0.01529  -0.00006
  39        3PZ         0.00005   0.00172  -0.00012  -0.00051   0.06462
  40        4XX        -0.00094  -0.00949   0.00061   0.00079  -0.00056
  41        4YY         0.00362   0.01072   0.01130  -0.00217  -0.00109
  42        4ZZ        -0.00063  -0.00565   0.00164   0.00018   0.00005
  43        4XY        -0.00349  -0.00006   0.00259   0.01337  -0.00016
  44        4XZ         0.00013   0.00000  -0.00012  -0.00048  -0.00053
  45        4YZ        -0.00012  -0.00077  -0.00007   0.00004  -0.01260
  46 4   F  1S         -0.21574   0.04536   0.04801  -0.05919  -0.00021
  47        2S          0.48464  -0.10221  -0.09836   0.11439  -0.00091
  48        2PX        -0.07454  -0.00375  -0.20441   0.36284   0.00682
  49        2PY         0.03367   0.01973   0.04183  -0.21186  -0.00105
  50        2PZ         0.00246  -0.00031   0.00558  -0.01364   0.21963
  51        3S          0.45908  -0.10932  -0.17277   0.23210   0.00420
  52        3PX        -0.04332  -0.00446  -0.12433   0.21079   0.00359
  53        3PY         0.01891   0.01495   0.02006  -0.12816   0.00090
  54        3PZ         0.00149  -0.00031   0.00295  -0.00823   0.13591
  55        4XX         0.02263   0.00060   0.02049  -0.02059  -0.00114
  56        4YY         0.00886   0.00055   0.00047  -0.00917  -0.00049
  57        4ZZ         0.00712  -0.00154   0.00115  -0.00331  -0.00005
  58        4XY        -0.00826  -0.00382  -0.00466   0.01112  -0.00006
  59        4XZ        -0.00067   0.00000  -0.00058   0.00088  -0.01146
  60        4YZ         0.00031   0.00010   0.00007  -0.00051   0.00377
                          11        12        13        14        15
                           O         O         O         O         O
     Eigenvalues --    -0.53876  -0.47438  -0.47096  -0.45100  -0.37779
   1 1   F  1S          0.00509  -0.00019  -0.00198  -0.00503  -0.00024
   2        2S         -0.00468  -0.00027  -0.00822   0.00392   0.00029
   3        2PX         0.29875  -0.01990   0.27037   0.05135   0.00459
   4        2PY        -0.33949   0.04139  -0.32611   0.21057   0.01009
   5        2PZ         0.00728  -0.35692  -0.04341   0.00357  -0.22504
   6        3S         -0.03682   0.00172   0.05203   0.06248   0.00216
   7        3PX         0.18162  -0.01331   0.18809   0.03993   0.00453
   8        3PY        -0.21920   0.02888  -0.20857   0.13612   0.00523
   9        3PZ         0.00423  -0.25290  -0.02984   0.00331  -0.16375
  10        4XX         0.01752  -0.00103   0.00509  -0.00462   0.00015
  11        4YY        -0.01078   0.00127  -0.01539  -0.00441  -0.00027
  12        4ZZ         0.00133  -0.00114  -0.00572  -0.00377  -0.00033
  13        4XY        -0.00937   0.00083  -0.00312   0.00255  -0.00005
  14        4XZ         0.00060  -0.01080  -0.00094   0.00009  -0.00330
  15        4YZ        -0.00046  -0.00702  -0.00122  -0.00003   0.00121
  16 2   C  1S          0.04697   0.00144  -0.02281   0.03814  -0.00177
  17        2S         -0.12723  -0.00467   0.06414  -0.10200   0.00260
  18        2PX        -0.02658   0.00310  -0.03153   0.01879  -0.00006
  19        2PY        -0.21426  -0.01615   0.14940  -0.19634  -0.00436
  20        2PZ         0.00075   0.09308   0.01157  -0.00310   0.25794
  21        3S         -0.10032  -0.00118   0.02022  -0.03641   0.01765
  22        3PX         0.01838   0.00058   0.06910   0.03994  -0.00041
  23        3PY        -0.12660  -0.00482   0.02325   0.10362   0.01188
  24        3PZ        -0.00028   0.05999   0.00816  -0.00194   0.09761
  25        4XX        -0.01084   0.00147  -0.01779   0.03626   0.00010
  26        4YY         0.02291  -0.00056   0.00801  -0.01999   0.00037
  27        4ZZ         0.00290  -0.00021  -0.00162   0.00136  -0.00073
  28        4XY         0.01063  -0.00426   0.02769   0.01570   0.00009
  29        4XZ        -0.00015   0.02889   0.00334   0.00046  -0.00219
  30        4YZ         0.00075   0.00323   0.00033  -0.00037   0.03768
  31 3   O  1S         -0.09025  -0.00482   0.04062  -0.04536  -0.00026
  32        2S          0.18482   0.00959  -0.08580   0.10669   0.00202
  33        2PX         0.00089  -0.01324   0.07414   0.06756   0.00077
  34        2PY         0.28139   0.02822  -0.23044   0.34833   0.03290
  35        2PZ        -0.01000   0.07815   0.02102  -0.02035   0.51296
  36        3S          0.40979   0.02313  -0.17066   0.11830  -0.00839
  37        3PX        -0.00156  -0.01128   0.04257   0.04198   0.00068
  38        3PY         0.11047   0.01337  -0.11930   0.21039   0.02448
  39        3PZ        -0.00292   0.04239   0.01164  -0.01441   0.34847
  40        4XX        -0.00869  -0.00035   0.00020   0.00776   0.00080
  41        4YY        -0.02609  -0.00207   0.01483  -0.01814  -0.00211
  42        4ZZ        -0.00352   0.00013  -0.00040   0.00440   0.00261
  43        4XY         0.00126   0.00094  -0.00179  -0.00358  -0.00007
  44        4XZ        -0.00011   0.00247   0.00023   0.00011  -0.00034
  45        4YZ         0.00091  -0.00563  -0.00155   0.00163  -0.03148
  46 4   F  1S         -0.00306   0.00080  -0.00484   0.00046  -0.00020
  47        2S          0.01150  -0.00107   0.01529   0.00371   0.00020
  48        2PX        -0.01710  -0.02606   0.36071   0.10432  -0.00618
  49        2PY        -0.21489  -0.04691   0.25069   0.48185   0.01041
  50        2PZ        -0.00375   0.55011   0.05733   0.01714  -0.27496
  51        3S         -0.01082  -0.00360  -0.01303  -0.00295   0.00174
  52        3PX        -0.00337  -0.01720   0.24524   0.06972  -0.00535
  53        3PY        -0.13873  -0.03206   0.16341   0.31567   0.00563
  54        3PZ        -0.00324   0.37704   0.03862   0.01199  -0.19812
  55        4XX         0.00461   0.00116  -0.01162  -0.00455   0.00027
  56        4YY        -0.00180  -0.00130   0.01171   0.00821  -0.00024
  57        4ZZ         0.00196   0.00125   0.00404   0.00168  -0.00041
  58        4XY         0.00946   0.00145  -0.00540  -0.00923   0.00005
  59        4XZ         0.00017  -0.01961  -0.00166  -0.00039   0.00480
  60        4YZ        -0.00037   0.00829   0.00130   0.00051   0.00095
                          16        17        18        19        20
                           O         V         V         V         V
     Eigenvalues --    -0.33370  -0.05539   0.01646   0.22640   0.29557
   1 1   F  1S         -0.01063   0.01088   0.05648  -0.06930   0.02994
   2        2S          0.01906  -0.02117  -0.11708   0.14791  -0.07521
   3        2PX         0.03140  -0.05476  -0.29835   0.13881  -0.18461
   4        2PY         0.16757  -0.01583  -0.06999   0.24961   0.10478
   5        2PZ         0.00208  -0.22360   0.03928   0.01102  -0.01755
   6        3S          0.08533  -0.08665  -0.45700   0.68420  -0.33154
   7        3PX         0.03167  -0.05994  -0.33217   0.27196  -0.23014
   8        3PY         0.12712  -0.02297  -0.12019   0.34629   0.13132
   9        3PZ         0.00246  -0.18695   0.03116   0.01226  -0.01760
  10        4XX        -0.00447   0.00130   0.01236   0.01007   0.01792
  11        4YY        -0.00218   0.00046  -0.00271  -0.02041  -0.00092
  12        4ZZ        -0.00213   0.00474   0.01547  -0.01138  -0.01686
  13        4XY         0.00466  -0.00148  -0.00587  -0.01044   0.00150
  14        4XZ        -0.00010   0.01521  -0.00431   0.00046   0.00309
  15        4YZ         0.00023   0.00698  -0.00272  -0.00174  -0.00036
  16 2   C  1S         -0.00163  -0.03344  -0.15194   0.02804   0.03941
  17        2S          0.00538   0.06124   0.28590   0.05220   0.07543
  18        2PX         0.07661   0.01570   0.12665   0.75581  -0.17767
  19        2PY         0.00399  -0.05307  -0.31210  -0.07809  -0.39935
  20        2PZ        -0.00059   0.61128  -0.14340   0.01321   0.00914
  21        3S         -0.01427   0.27431   1.32894  -0.79108  -1.59334
  22        3PX         0.11621   0.00122   0.03569   0.94303  -0.25183
  23        3PY        -0.00446  -0.02142  -0.14812  -0.23395  -1.89866
  24        3PZ         0.00029   0.43216  -0.12238   0.02740   0.05088
  25        4XX        -0.00341  -0.00785  -0.03944  -0.00914  -0.02437
  26        4YY         0.00176  -0.00533  -0.01375   0.01443   0.02885
  27        4ZZ        -0.00023   0.00692   0.02803  -0.00813  -0.01582
  28        4XY         0.04177  -0.00067  -0.00275   0.02381  -0.01268
  29        4XZ        -0.00026   0.00072   0.00008   0.00481  -0.00113
  30        4YZ         0.00006  -0.02405   0.00407  -0.00104  -0.00370
  31 3   O  1S         -0.00080   0.00685   0.03371  -0.03161  -0.11102
  32        2S          0.00276  -0.01299  -0.06217   0.05691   0.16243
  33        2PX         0.61841  -0.00484  -0.04068  -0.27749   0.06800
  34        2PY        -0.00587   0.02684   0.16273  -0.09044  -0.22433
  35        2PZ         0.00082  -0.40459   0.07684  -0.00168   0.01365
  36        3S          0.00605  -0.06659  -0.35155   0.46289   1.96235
  37        3PX         0.40405  -0.00431  -0.03996  -0.36393   0.10520
  38        3PY        -0.00554   0.04141   0.25650  -0.26663  -0.95623
  39        3PZ         0.00062  -0.38263   0.07548   0.00195   0.03446
  40        4XX        -0.00068   0.00148   0.00648  -0.00832  -0.04326
  41        4YY         0.00091  -0.00162  -0.00533   0.00506   0.00656
  42        4ZZ         0.00046   0.00414   0.01922  -0.01359  -0.05102
  43        4XY        -0.02701  -0.00019  -0.00242  -0.02808   0.00774
  44        4XZ         0.00107   0.00040   0.00004   0.00238  -0.00071
  45        4YZ        -0.00003  -0.00504   0.00370  -0.00107  -0.00156
  46 4   F  1S          0.01024   0.01088   0.06108   0.04703  -0.00565
  47        2S         -0.01963  -0.02227  -0.13367  -0.11137  -0.00052
  48        2PX         0.07261   0.06638   0.36309   0.18414   0.07792
  49        2PY        -0.20873  -0.01676  -0.08803  -0.14052   0.20439
  50        2PZ        -0.00177  -0.19667   0.03025  -0.02008  -0.00700
  51        3S         -0.07724  -0.07783  -0.43827  -0.39502   0.05383
  52        3PX         0.06636   0.06988   0.38940   0.21502   0.04689
  53        3PY        -0.15195  -0.02148  -0.12352  -0.14957   0.26066
  54        3PZ        -0.00235  -0.15991   0.02304  -0.01646  -0.00663
  55        4XX        -0.00028   0.00019   0.00689   0.01098   0.01135
  56        4YY         0.00306   0.00048  -0.00204   0.00738  -0.00861
  57        4ZZ         0.00177   0.00368   0.01060  -0.00887  -0.01732
  58        4XY         0.00555   0.00118   0.00383  -0.01917   0.01000
  59        4XZ         0.00010  -0.01406   0.00380  -0.00248  -0.00177
  60        4YZ        -0.00025   0.00439  -0.00159   0.00183  -0.00161
                          21        22        23        24        25
                           V         V         V         V         V
     Eigenvalues --     0.46729   0.47532   0.48046   0.55779   0.84052
   1 1   F  1S          0.01962  -0.00500  -0.02459  -0.00032   0.00224
   2        2S         -0.00221   0.00077   0.00831  -0.02126   0.06516
   3        2PX         0.20619  -0.03418  -0.17415   0.03025  -0.07139
   4        2PY         0.20176  -0.03059   0.00522   0.00515   0.10711
   5        2PZ        -0.00547  -0.11304   0.01140   0.00502  -0.00697
   6        3S         -0.69780   0.15014   0.66167   0.03731  -0.12364
   7        3PX        -0.24308   0.04898   0.07232  -0.03125   0.01477
   8        3PY        -0.06161   0.02564   0.22937  -0.11405  -0.06665
   9        3PZ        -0.02499  -0.12945   0.01516   0.00131   0.00270
  10        4XX        -0.10140   0.01726   0.01636   0.01498   0.04888
  11        4YY         0.00879   0.00028   0.02067  -0.05189   0.00210
  12        4ZZ         0.06023  -0.01393  -0.03406   0.00191   0.01301
  13        4XY        -0.09098   0.01913   0.06667  -0.04024  -0.01951
  14        4XZ        -0.01163  -0.03305   0.00396   0.00123   0.00252
  15        4YZ        -0.00752  -0.02420   0.00227  -0.00076  -0.00044
  16 2   C  1S          0.02751  -0.00228  -0.01266   0.05736   0.03748
  17        2S         -1.00305   0.10431  -0.18115  -1.00360   0.42741
  18        2PX         0.20907  -0.05624  -0.69572  -0.05622  -0.01556
  19        2PY         0.58513  -0.07649   0.19197  -0.71314   0.27340
  20        2PZ        -0.12823  -0.92411   0.03583   0.01345  -0.01120
  21        3S          1.59305  -0.21965   0.34577   1.53375   0.01550
  22        3PX        -0.38278   0.13516   2.03526   0.14463   0.00162
  23        3PY        -1.10852   0.14880  -0.28701   1.12645  -0.06573
  24        3PZ         0.15563   1.33685  -0.06088  -0.03385   0.00058
  25        4XX         0.06846  -0.01540   0.00456  -0.07367  -0.02556
  26        4YY        -0.05095  -0.00191  -0.04380   0.14570   0.26137
  27        4ZZ        -0.04873   0.00835   0.00330  -0.08608  -0.05665
  28        4XY         0.05485  -0.01186  -0.08349  -0.00409  -0.00489
  29        4XZ         0.00301   0.00227  -0.00130   0.00012   0.00068
  30        4YZ         0.00308  -0.00475   0.00040  -0.00669  -0.01145
  31 3   O  1S          0.00553  -0.00132   0.00467  -0.01248   0.00865
  32        2S         -0.07576   0.00467  -0.03166   0.09782  -0.51534
  33        2PX         0.00468  -0.00747  -0.16595  -0.00696   0.02935
  34        2PY         0.02492  -0.00113   0.04155  -0.47051  -0.66238
  35        2PZ        -0.00662  -0.11237   0.00655   0.01331   0.01611
  36        3S          0.22951   0.00492   0.07456  -0.87567   0.66061
  37        3PX         0.05205  -0.02040  -0.33830  -0.02783  -0.03393
  38        3PY         0.11488  -0.03195   0.02718   0.20333   1.20381
  39        3PZ        -0.01914  -0.17125   0.00845  -0.00532  -0.03287
  40        4XX        -0.02237   0.00046  -0.01456   0.05784  -0.19701
  41        4YY        -0.01347   0.00658   0.01558  -0.18033  -0.21532
  42        4ZZ        -0.01251  -0.00414  -0.00540   0.07636  -0.18958
  43        4XY        -0.01651   0.00414   0.04782   0.00692   0.00215
  44        4XZ         0.00027  -0.00037   0.00066  -0.00006  -0.00006
  45        4YZ         0.00631   0.05127  -0.00296   0.00980   0.00045
  46 4   F  1S          0.01470  -0.00167   0.04097   0.00272   0.00209
  47        2S         -0.06979   0.00728  -0.04891  -0.05051   0.09691
  48        2PX        -0.06392  -0.00060  -0.18387  -0.06912   0.05781
  49        2PY         0.11121  -0.01586   0.04783  -0.00610   0.11292
  50        2PZ        -0.01002  -0.11956   0.00177   0.00398  -0.00611
  51        3S         -0.25475   0.02329  -0.89782  -0.03965  -0.16490
  52        3PX         0.22355  -0.03183   0.28619   0.05526  -0.03453
  53        3PY         0.03176  -0.00727  -0.21635  -0.13967  -0.05731
  54        3PZ        -0.02051  -0.12626  -0.00770   0.00052   0.00335
  55        4XX        -0.10067   0.01217  -0.07771  -0.02527   0.07025
  56        4YY         0.00747  -0.00141   0.00744  -0.05005   0.01501
  57        4ZZ         0.01112  -0.00279   0.05281  -0.00283   0.02766
  58        4XY         0.02694  -0.00317   0.07323   0.05764   0.02550
  59        4XZ         0.00697   0.02423   0.00370   0.00014  -0.00286
  60        4YZ        -0.00318  -0.01418  -0.00111  -0.00106  -0.00053
                          26        27        28        29        30
                           V         V         V         V         V
     Eigenvalues --     0.94045   0.94663   1.04110   1.08651   1.11811
   1 1   F  1S         -0.00041  -0.01349  -0.03678   0.00797   0.01999
   2        2S         -0.00132  -0.52814  -0.78857   0.14928   0.37837
   3        2PX        -0.01420   0.16031   0.46400  -0.03442  -0.11564
   4        2PY         0.01290   0.23507   0.08876  -0.08382  -0.38079
   5        2PZ         0.16683  -0.02294   0.02117  -0.60138   0.16771
   6        3S          0.00540   0.74195   1.60107  -0.34142  -0.92968
   7        3PX         0.01495  -0.26350  -0.65048   0.07944   0.27748
   8        3PY        -0.01192  -0.33579  -0.19432   0.09674   0.45158
   9        3PZ        -0.10407   0.01602  -0.02772   0.63792  -0.18199
  10        4XX         0.00257  -0.23241  -0.35996   0.06490   0.15251
  11        4YY        -0.00201  -0.28249  -0.34338   0.06564   0.17155
  12        4ZZ        -0.00371  -0.19691  -0.40885   0.07957   0.21388
  13        4XY        -0.00369  -0.00611   0.01913  -0.01243  -0.04857
  14        4XZ        -0.02461   0.00211   0.00243   0.03798  -0.01241
  15        4YZ         0.03252   0.00581  -0.00191   0.07086  -0.01776
  16 2   C  1S         -0.00089   0.00708   0.02713   0.00113   0.00131
  17        2S         -0.00412   0.08390   0.44565   0.02877   0.03300
  18        2PX         0.00253  -0.11383  -0.07281   0.09344   0.30766
  19        2PY         0.00419  -0.03744  -0.16100   0.00142   0.03022
  20        2PZ         0.06772  -0.00088  -0.01026  -0.01163   0.00518
  21        3S          0.02198  -0.06333  -0.56652  -0.08369  -0.12567
  22        3PX         0.02035  -0.54529   0.15858  -0.24114  -0.82980
  23        3PY         0.00697  -0.01901   0.06698  -0.01052  -0.02961
  24        3PZ        -0.42886  -0.01590   0.00451  -0.02588   0.00208
  25        4XX         0.00065   0.03675   0.24410   0.01229   0.00447
  26        4YY        -0.00243   0.01633   0.07426   0.00423   0.02026
  27        4ZZ         0.00239  -0.01156  -0.12723  -0.01208  -0.02677
  28        4XY        -0.00085   0.03299   0.07222  -0.05640  -0.23181
  29        4XZ        -0.01051  -0.00752   0.01667  -0.24415   0.06224
  30        4YZ         0.00155   0.00072  -0.00302   0.01390  -0.00909
  31 3   O  1S          0.00097  -0.00079  -0.00340  -0.00066   0.00036
  32        2S          0.01069  -0.00861   0.01721  -0.00020   0.03916
  33        2PX         0.02935  -0.77518   0.13913  -0.08069  -0.40027
  34        2PY        -0.02160  -0.02864  -0.05001  -0.01064  -0.03382
  35        2PZ        -0.92227  -0.03348   0.00077  -0.02263   0.00113
  36        3S         -0.03986   0.04079   0.09381   0.02717  -0.03542
  37        3PX        -0.04012   1.06290  -0.24051   0.17879   0.82591
  38        3PY         0.03699   0.03528   0.05606   0.00950   0.07066
  39        3PZ         1.18949   0.04361  -0.00165   0.03205   0.00009
  40        4XX         0.00218  -0.00013   0.03516   0.00382   0.01535
  41        4YY         0.00618  -0.00674  -0.00069   0.00337   0.02334
  42        4ZZ         0.00447  -0.00954  -0.05846  -0.01092  -0.01668
  43        4XY        -0.00093   0.02783  -0.02442   0.01599   0.14807
  44        4XZ        -0.00112  -0.00565   0.00576  -0.09239   0.02135
  45        4YZ         0.02635   0.00134  -0.00029   0.00141   0.00044
  46 4   F  1S         -0.00082   0.00821  -0.03783  -0.01768  -0.03850
  47        2S         -0.02512   0.36594  -0.83926  -0.32787  -0.69353
  48        2PX         0.00495   0.07279  -0.40561  -0.11404  -0.26836
  49        2PY         0.02760  -0.23138   0.02988   0.06881   0.27685
  50        2PZ         0.12721   0.03116  -0.04101   0.58705  -0.17476
  51        3S          0.03350  -0.46082   1.61891   0.71611   1.60517
  52        3PX         0.00098  -0.14217   0.47550   0.13798   0.33865
  53        3PY        -0.03054   0.27595  -0.07964  -0.06367  -0.26379
  54        3PZ        -0.06549  -0.02196   0.03726  -0.60637   0.18890
  55        4XX        -0.00845   0.15248  -0.38016  -0.13042  -0.24532
  56        4YY        -0.01531   0.21171  -0.36445  -0.14651  -0.32613
  57        4ZZ        -0.01141   0.12133  -0.39312  -0.16830  -0.36450
  58        4XY         0.00494  -0.01818  -0.02651  -0.01187  -0.02532
  59        4XZ         0.02196   0.00444  -0.00885   0.07005  -0.02478
  60        4YZ         0.03081  -0.00235   0.00586  -0.05806   0.01468
                          31        32        33        34        35
                           V         V         V         V         V
     Eigenvalues --     1.22309   1.26082   1.27127   1.33462   1.35727
   1 1   F  1S         -0.01520   0.00641  -0.00457  -0.03051  -0.00712
   2        2S         -0.17832  -0.00937  -0.07669  -0.44577  -0.08911
   3        2PX        -0.30484  -0.40195   0.02957  -0.01926  -0.00601
   4        2PY         0.38074   0.25116  -0.14488  -0.42478  -0.03296
   5        2PZ        -0.04924   0.03166  -0.57492   0.17159  -0.22248
   6        3S          0.49350  -0.14374   0.15850   1.03045   0.21842
   7        3PX         0.47710   0.55900  -0.02759   0.10396   0.03138
   8        3PY        -0.43971  -0.31940   0.23548   0.77549   0.07478
   9        3PZ         0.06560  -0.04320   0.82443  -0.27642   0.44598
  10        4XX        -0.18151  -0.10160  -0.02521  -0.15013  -0.01975
  11        4YY         0.13931   0.05003  -0.02011  -0.07110  -0.00901
  12        4ZZ        -0.18892   0.11122  -0.03885  -0.31484  -0.08381
  13        4XY         0.03594  -0.00908  -0.02695  -0.14335  -0.01633
  14        4XZ        -0.00046   0.00940   0.00021   0.07658  -0.38201
  15        4YZ        -0.00710   0.00475  -0.08220   0.03363  -0.23096
  16 2   C  1S         -0.01615   0.00209  -0.00626  -0.02099  -0.00244
  17        2S          0.02802  -0.00588  -0.03212   0.00114  -0.00063
  18        2PX         0.07697   0.13022  -0.01493  -0.03099   0.00943
  19        2PY        -0.18961   0.04728   0.02679   0.03785   0.01369
  20        2PZ         0.01501  -0.00022   0.14479  -0.03384   0.02215
  21        3S         -1.84780   0.32587  -0.29238  -2.04284  -0.20298
  22        3PX        -0.22567  -0.32000   0.06077   0.10240   0.03575
  23        3PY        -0.55092   0.08036  -0.27715  -1.25330  -0.09466
  24        3PZ        -0.01238  -0.00799  -0.73851   0.26336  -0.06066
  25        4XX         0.19596  -0.02934  -0.01585   0.03195  -0.01621
  26        4YY        -0.18631   0.02659  -0.00507   0.00927   0.02542
  27        4ZZ        -0.08972   0.01644  -0.02441  -0.23404  -0.02999
  28        4XY        -0.06458  -0.10586   0.00112  -0.03229  -0.04793
  29        4XZ         0.00949  -0.01602   0.06891  -0.03663   0.48464
  30        4YZ        -0.00350  -0.01749  -0.25577  -0.03682   0.31577
  31 3   O  1S         -0.06373   0.01287  -0.00956  -0.05975  -0.00456
  32        2S         -1.05761   0.24893  -0.11640  -0.80386  -0.06426
  33        2PX        -0.01087   0.09799   0.01266   0.03640   0.01675
  34        2PY         0.21583  -0.07160   0.00295   0.10423   0.01150
  35        2PZ        -0.00905   0.00138  -0.14225   0.03054  -0.06297
  36        3S          2.97102  -0.62865   0.45319   2.85857   0.22876
  37        3PX         0.09993  -0.04259  -0.03092  -0.05785  -0.00981
  38        3PY        -1.17516   0.27079  -0.10163  -0.86513  -0.07132
  39        3PZ         0.05061   0.00130   0.49786  -0.06234  -0.02604
  40        4XX        -0.21235   0.06144   0.00469  -0.00679   0.00186
  41        4YY        -0.38483   0.09940  -0.01939  -0.23747  -0.02717
  42        4ZZ        -0.27932   0.03958  -0.09161  -0.44974  -0.02988
  43        4XY         0.02203  -0.02000  -0.00331   0.00097   0.03517
  44        4XZ         0.00135  -0.00418   0.01619  -0.01227   0.15700
  45        4YZ         0.00732   0.00728   0.20705  -0.00760  -0.19674
  46 4   F  1S         -0.02217  -0.00439  -0.00177  -0.02584  -0.00186
  47        2S         -0.30069  -0.00358  -0.04228  -0.44069  -0.04156
  48        2PX         0.02217  -0.48696   0.04576   0.20995   0.01309
  49        2PY         0.21667  -0.53851  -0.13655  -0.44745  -0.07425
  50        2PZ        -0.07230  -0.02607  -0.53114   0.15656   0.13913
  51        3S          0.85052   0.09810   0.05551   0.94075   0.08037
  52        3PX        -0.07621   0.63297  -0.06522  -0.33298  -0.01771
  53        3PY        -0.21113   0.67969   0.20470   0.74235   0.11379
  54        3PZ         0.08948   0.03387   0.73210  -0.23288  -0.21695
  55        4XX        -0.13152   0.12880  -0.03286  -0.19876   0.00618
  56        4YY        -0.00067  -0.13439   0.00030  -0.07429  -0.04074
  57        4ZZ        -0.27481  -0.04567  -0.00728  -0.25029  -0.01247
  58        4XY        -0.06723   0.05055   0.02936   0.13616   0.04629
  59        4XZ        -0.00615   0.00149  -0.02128  -0.03711  -0.14000
  60        4YZ        -0.00190  -0.00405  -0.03539  -0.00278   0.18698
                          36        37        38        39        40
                           V         V         V         V         V
     Eigenvalues --     1.37059   1.56551   1.62363   1.74658   1.75650
   1 1   F  1S         -0.00484   0.01637  -0.00539   0.01635   0.00171
   2        2S         -0.07253  -0.24151   0.27268   0.34344   0.01331
   3        2PX        -0.00514  -0.26297   0.27299   0.19520  -0.01479
   4        2PY        -0.04933  -0.20618   0.06199  -0.18239   0.01773
   5        2PZ        -0.08201   0.00148   0.01336   0.02528   0.01417
   6        3S          0.16613   0.15498  -0.33162  -0.80587  -0.04583
   7        3PX         0.01802   0.15680  -0.30557  -0.41220   0.02230
   8        3PY         0.09749   0.26999   0.13654   0.39633  -0.04626
   9        3PZ         0.13868  -0.00683  -0.01886  -0.04325  -0.01551
  10        4XX         0.01110   0.14680   0.40821  -0.17064   0.06489
  11        4YY        -0.04524  -0.42967  -0.04993  -0.10157  -0.01888
  12        4ZZ        -0.05205   0.15765  -0.13404   0.60993  -0.02669
  13        4XY        -0.03935  -0.10541  -0.15578   0.44845  -0.03392
  14        4XZ        -0.13845  -0.00751   0.05512  -0.08469  -0.52486
  15        4YZ         0.13789  -0.05358  -0.04989   0.00286   0.66498
  16 2   C  1S         -0.00347  -0.00880  -0.00105   0.02778  -0.00212
  17        2S          0.00196   0.08453   0.07225   0.04976   0.00974
  18        2PX        -0.01161  -0.07220   0.04663   0.01417  -0.00478
  19        2PY         0.01893  -0.02127   0.13273  -0.10402   0.01391
  20        2PZ         0.00356   0.00053   0.00380   0.01028   0.01507
  21        3S         -0.23943  -0.73652  -0.91112  -1.44016   0.04621
  22        3PX        -0.00245  -0.21134   0.14529   0.01807  -0.09046
  23        3PY        -0.09596  -0.53464  -0.87894  -1.89626   0.11676
  24        3PZ        -0.15017   0.02586   0.02679   0.04887  -0.00943
  25        4XX        -0.02956  -0.08154  -0.28508   0.18895  -0.02533
  26        4YY         0.03655  -0.01749   0.14436  -0.43099   0.03536
  27        4ZZ        -0.03540   0.08492   0.19602   0.31604  -0.01621
  28        4XY         0.00787   0.43467  -0.11739  -0.02007   0.01413
  29        4XZ        -0.30712   0.03623  -0.01101  -0.00645   0.01014
  30        4YZ         0.48492   0.01059  -0.01582   0.03566  -0.02623
  31 3   O  1S         -0.00476  -0.02027  -0.02200  -0.05150   0.00350
  32        2S         -0.07845  -0.37145  -0.79237  -0.68954   0.01841
  33        2PX         0.00167  -0.09901   0.02520   0.01429  -0.00484
  34        2PY         0.01817   0.06125   0.32401  -0.18628   0.02849
  35        2PZ        -0.09393  -0.00523  -0.01040  -0.00719   0.04275
  36        3S          0.25903   1.19499   2.01153   2.92715  -0.14034
  37        3PX        -0.00783   0.06912  -0.03552  -0.00733   0.02379
  38        3PY        -0.08643  -0.39629  -0.76286  -0.80304   0.02686
  39        3PZ        -0.02604   0.01268   0.03003   0.04464  -0.04946
  40        4XX         0.00130  -0.08637  -0.47754  -0.04931  -0.03593
  41        4YY        -0.03588  -0.11777  -0.27343  -0.30280   0.01972
  42        4ZZ        -0.02875  -0.04897   0.26841  -0.01364   0.02892
  43        4XY        -0.01636  -0.36508   0.09592   0.00695  -0.03540
  44        4XZ        -0.09633   0.05886  -0.01719  -0.07447  -0.34333
  45        4YZ        -0.30029  -0.00762   0.03783  -0.01587   0.14832
  46 4   F  1S         -0.00679  -0.02621   0.00823   0.02198  -0.00712
  47        2S         -0.09571   0.20288   0.29409   0.13353  -0.05671
  48        2PX         0.02644  -0.33520  -0.19194  -0.03515  -0.00483
  49        2PY        -0.05422   0.10384  -0.02430  -0.16310   0.00840
  50        2PZ        -0.34468   0.01502   0.01123   0.00967  -0.04377
  51        3S          0.21754  -0.02092  -0.56523  -0.46347   0.18010
  52        3PX        -0.05415   0.24636   0.28752   0.20284  -0.02989
  53        3PY         0.09496  -0.00719   0.14758   0.38149  -0.00314
  54        3PZ         0.54665  -0.01902  -0.01748  -0.02257   0.04959
  55        4XX        -0.01988  -0.11461   0.41110   0.12586  -0.03579
  56        4YY        -0.02938   0.35495  -0.11859  -0.10044   0.02869
  57        4ZZ        -0.07161  -0.19783   0.00279   0.21703  -0.07691
  58        4XY         0.03227  -0.10432   0.22963  -0.08116   0.05619
  59        4XZ         0.38196  -0.01445  -0.01685  -0.03141  -0.35046
  60        4YZ        -0.09905   0.02421  -0.05550  -0.07809  -0.01750
                          41        42        43        44        45
                           V         V         V         V         V
     Eigenvalues --     1.77559   1.79418   1.80292   1.83030   1.87253
   1 1   F  1S         -0.00249   0.00101  -0.00178  -0.04755  -0.01394
   2        2S         -0.02380   0.27963  -0.01783  -0.93994   0.07694
   3        2PX         0.02867   0.02066   0.00819  -0.13790  -0.04562
   4        2PY        -0.03979   0.13537  -0.01080  -0.00590   0.26421
   5        2PZ        -0.04924  -0.00346  -0.00661   0.00449  -0.00028
   6        3S          0.07542  -0.54887   0.05313   2.27796   0.03142
   7        3PX        -0.04525   0.02315  -0.00345   0.59266   0.21501
   8        3PY         0.10034  -0.33616   0.03423   0.16787  -0.39121
   9        3PZ         0.06046   0.00196   0.01014  -0.00109   0.00132
  10        4XX        -0.03688  -0.09324  -0.00992  -0.52560   0.31406
  11        4YY         0.00678  -0.09099  -0.03878  -0.24657  -0.55541
  12        4ZZ        -0.00014   0.35414   0.02746  -0.06905   0.21556
  13        4XY        -0.00562   0.32627   0.00274  -0.18557  -0.02947
  14        4XZ        -0.00448   0.04053   0.08427   0.00731   0.00834
  15        4YZ         0.49851  -0.00659  -0.04619  -0.00690   0.03617
  16 2   C  1S          0.00322  -0.00436   0.00244   0.02607  -0.00398
  17        2S         -0.00094   0.08090   0.01954   0.41746   0.18359
  18        2PX         0.00031   0.05946   0.00248   0.05144   0.09236
  19        2PY        -0.00557   0.02718  -0.00133  -0.10789   0.12315
  20        2PZ        -0.01708  -0.00630  -0.00240  -0.01364  -0.00764
  21        3S         -0.20189   0.15873  -0.18228  -2.00080  -0.51414
  22        3PX         0.14278  -0.77312   0.01355  -0.02685  -0.56331
  23        3PY        -0.28424   0.76219  -0.11066   0.59126   0.57732
  24        3PZ         0.01281  -0.00528   0.00412   0.06902   0.01408
  25        4XX         0.03520  -0.15270   0.00631  -0.20445  -0.27134
  26        4YY        -0.06037   0.17190  -0.02693  -0.03154   0.21726
  27        4ZZ         0.03854  -0.06493   0.02585   0.24300   0.03955
  28        4XY        -0.01519   0.03834  -0.00474  -0.02085   0.02601
  29        4XZ         0.00126   0.00973   0.01138  -0.00141   0.00717
  30        4YZ         0.00515  -0.01339  -0.00095  -0.00168  -0.01889
  31 3   O  1S         -0.00665   0.01583  -0.00310  -0.01248   0.01754
  32        2S         -0.11208   0.19629  -0.06352  -0.08499  -0.22618
  33        2PX         0.00373  -0.02227   0.00579   0.00447   0.02509
  34        2PY        -0.01852   0.08975  -0.00393  -0.03982   0.25272
  35        2PZ         0.04314   0.00319   0.03910   0.00610   0.00391
  36        3S          0.43856  -0.91574   0.23042   0.42542  -0.05194
  37        3PX        -0.03351   0.18908  -0.00888  -0.00008   0.07930
  38        3PY        -0.12602   0.22358  -0.07279  -0.18821  -0.15104
  39        3PZ        -0.05001  -0.01899  -0.04861  -0.01792  -0.01737
  40        4XX        -0.04635  -0.05108  -0.04175  -0.48114   0.43909
  41        4YY        -0.04347   0.09854  -0.01991  -0.00161  -0.05533
  42        4ZZ         0.03788   0.04227   0.03450   0.40707  -0.42315
  43        4XY         0.01720  -0.02995   0.00923   0.00923   0.28669
  44        4XZ         0.73347   0.09345  -0.46902   0.01013   0.02675
  45        4YZ         0.13205   0.00554   0.09935  -0.01088   0.00730
  46 4   F  1S          0.00889  -0.03798  -0.00043  -0.05116  -0.04594
  47        2S          0.11187  -0.74226  -0.01660  -0.87119  -0.51441
  48        2PX        -0.01668   0.15666   0.00032   0.13863   0.01283
  49        2PY        -0.01591   0.01982  -0.01281  -0.01998   0.05028
  50        2PZ         0.01888  -0.00664  -0.02304   0.00369  -0.00601
  51        3S         -0.29851   1.76482   0.03333   2.10969   1.47143
  52        3PX         0.07397  -0.46020  -0.00304  -0.57226  -0.30101
  53        3PY         0.02274   0.05444   0.02996   0.12030   0.02326
  54        3PZ        -0.02519   0.02063   0.02801  -0.00209   0.01735
  55        4XX         0.08759  -0.13326  -0.00703  -0.67065  -0.39018
  56        4YY        -0.03140   0.10598  -0.00513  -0.31917  -0.42300
  57        4ZZ         0.07476  -0.68063  -0.00075   0.12535   0.21140
  58        4XY        -0.02670   0.60359   0.01188   0.05476   0.01675
  59        4XZ         0.23842   0.01682   0.24918  -0.01151   0.00320
  60        4YZ         0.34366   0.02872   0.83425  -0.03713   0.01971
                          46        47        48        49        50
                           V         V         V         V         V
     Eigenvalues --     1.91598   1.93624   2.03216   2.10310   2.47370
   1 1   F  1S         -0.08118   0.01030   0.02105  -0.01687   0.00192
   2        2S         -1.24898   0.03452   0.12512   0.00678  -0.07378
   3        2PX         0.03915  -0.04609  -0.09215   0.14275  -0.00682
   4        2PY        -0.03018  -0.03087  -0.03467   0.04248  -0.03107
   5        2PZ        -0.02071   0.00421  -0.14261  -0.09756  -0.05906
   6        3S          3.45080  -0.23508  -0.53902   0.25325   0.14011
   7        3PX         0.43419   0.05058  -0.02509  -0.08768   0.00273
   8        3PY         0.40907  -0.04619  -0.08793   0.07996   0.08957
   9        3PZ         0.05741  -0.00996   0.29686   0.22963   0.20528
  10        4XX        -0.69384  -0.15746   0.11124  -0.12056  -0.05606
  11        4YY        -0.56138   0.35635  -0.12565   0.22585   0.03165
  12        4ZZ         0.07075  -0.12360   0.18088  -0.16550   0.01654
  13        4XY        -0.18930   0.08988   0.13169  -0.17410   0.04384
  14        4XZ         0.00027   0.00109   0.44622   0.33493   0.24294
  15        4YZ         0.00550   0.00049   0.20614   0.16786   0.39135
  16 2   C  1S          0.00173  -0.00386  -0.03638   0.04600  -0.01248
  17        2S          0.00723   0.11849  -0.17477   0.17722   0.00920
  18        2PX        -0.15454   0.01371  -0.05439   0.08353   0.11231
  19        2PY         0.07840   0.02303   0.11159  -0.14471  -0.04802
  20        2PZ        -0.01221  -0.00109  -0.24249  -0.18550  -0.11032
  21        3S         -0.17570  -0.19530   0.74975  -0.62792   0.03772
  22        3PX         2.07217  -0.60984  -0.17512   0.18267   0.19878
  23        3PY         0.90949   0.29405   0.10741  -0.25190  -0.08461
  24        3PZ        -0.00115   0.00740  -0.42815  -0.30290  -0.08841
  25        4XX        -0.12701  -0.15394   0.16286  -0.19404  -0.02957
  26        4YY         0.18713   0.10201   0.19541  -0.30130   0.02330
  27        4ZZ        -0.01838   0.04183  -0.53650   0.76359  -0.04510
  28        4XY        -0.37795   0.16719   0.03990  -0.02857   0.02689
  29        4XZ        -0.03182   0.01375  -0.01273  -0.02357   0.80325
  30        4YZ        -0.01456  -0.00696   0.05285   0.05472  -0.43767
  31 3   O  1S          0.01687   0.00790   0.01372  -0.01375   0.00015
  32        2S          0.05425  -0.07397  -0.00611   0.06086  -0.06659
  33        2PX         0.15746  -0.22549  -0.02325   0.02297   0.01049
  34        2PY         0.13697   0.09719   0.14188  -0.21525   0.03357
  35        2PZ         0.00108   0.00237  -0.09858  -0.05811  -0.00964
  36        3S         -0.69418  -0.09184  -0.41232   0.39523   0.12732
  37        3PX        -0.62141   0.43952   0.07006  -0.07815  -0.07898
  38        3PY         0.10340  -0.03225   0.08853  -0.03095  -0.06162
  39        3PZ        -0.01595  -0.01026   0.26330   0.20864   0.19598
  40        4XX         0.17179   0.20373  -0.20694   0.29803  -0.02442
  41        4YY         0.00510  -0.04744  -0.00029  -0.05490   0.00454
  42        4ZZ        -0.13120  -0.16635   0.22070  -0.21177   0.00583
  43        4XY        -0.07392  -0.57634  -0.05924   0.09022   0.06899
  44        4XZ        -0.01715  -0.01874   0.01781   0.01136  -0.23257
  45        4YZ        -0.01055   0.00576  -0.44036  -0.35511  -0.46454
  46 4   F  1S          0.04514  -0.03803   0.01281  -0.00967  -0.00334
  47        2S          0.70563  -0.22369  -0.01331   0.13849   0.18357
  48        2PX         0.07061  -0.03264   0.06740  -0.11940  -0.05034
  49        2PY         0.23415   0.17425  -0.03057   0.03457   0.02376
  50        2PZ         0.00720  -0.00511  -0.13578  -0.09283   0.08724
  51        3S         -1.89961   0.89040  -0.11524  -0.14973  -0.34659
  52        3PX         0.08842  -0.16926  -0.01901   0.13858   0.13112
  53        3PY        -0.64334  -0.15030   0.00051  -0.00611  -0.06376
  54        3PZ        -0.02322   0.01509   0.27574   0.20321  -0.23456
  55        4XX         0.63193   0.10989   0.10166  -0.13865  -0.01332
  56        4YY         0.08853  -0.70154  -0.17066   0.25564   0.03074
  57        4ZZ        -0.02473   0.23055   0.13619  -0.09417   0.01557
  58        4XY         0.00633   0.31534  -0.11678   0.17001   0.03340
  59        4XZ        -0.04142   0.00114  -0.50037  -0.36502   0.55203
  60        4YZ         0.00078   0.01431   0.17681   0.13878  -0.26232
                          51        52        53        54        55
                           V         V         V         V         V
     Eigenvalues --     2.56752   2.63320   2.70233   2.90075   2.98922
   1 1   F  1S          0.00598  -0.00541  -0.04974   0.02433  -0.00472
   2        2S         -0.11720   0.39680   0.78650  -0.31174  -0.82020
   3        2PX        -0.04567  -0.01287   0.22725  -0.12748  -0.04284
   4        2PY        -0.01736   0.15778   0.08042  -0.03205  -0.05055
   5        2PZ        -0.06280  -0.00052   0.00439  -0.00277   0.00113
   6        3S          0.17970  -0.86568  -1.27569   0.47065   1.86253
   7        3PX         0.08159  -0.04098  -0.68414   0.24741   1.05408
   8        3PY         0.01202  -0.64087  -0.18245   0.00124   0.78795
   9        3PZ         0.25664   0.00931   0.00617  -0.00408   0.03529
  10        4XX         0.01997   0.25650  -0.46912   0.23823   0.51130
  11        4YY        -0.03050  -0.31133   0.04452  -0.12934   0.11106
  12        4ZZ         0.01549   0.05102   0.12469   0.02140  -0.44957
  13        4XY        -0.00992  -0.41855  -0.14207  -0.11377   0.90132
  14        4XZ         0.56533   0.03780   0.06009  -0.00935   0.05198
  15        4YZ         0.23737   0.03083   0.04291  -0.00920   0.04439
  16 2   C  1S          0.00543   0.08283  -0.02257   0.03692   0.11083
  17        2S          0.00622   0.00593  -0.24013  -1.22167  -1.45561
  18        2PX         0.04079  -0.75118  -0.47989  -0.09744   0.53288
  19        2PY         0.08126   0.44306  -0.80455  -0.79091   0.56298
  20        2PZ         0.05968  -0.02477   0.01496   0.03517   0.03598
  21        3S          0.06196   0.00918  -0.81182  -1.46169  -1.66051
  22        3PX         0.07474  -1.27206  -0.76914   0.09481   0.10766
  23        3PY         0.14380   0.75169  -1.17845  -0.17089  -0.03568
  24        3PZ         0.06197  -0.01761   0.01799   0.03430   0.04128
  25        4XX         0.05641   0.15490  -0.28364   0.49301  -0.61960
  26        4YY        -0.04147  -0.07786   0.12498  -0.79906   0.58570
  27        4ZZ         0.00563   0.33452   0.05858   0.56803   0.84158
  28        4XY         0.03521  -0.04690  -0.18488   0.43553  -0.54087
  29        4XZ         0.47832   0.16232   0.09942  -0.00840  -0.00911
  30        4YZ         0.88568  -0.10487   0.13679  -0.00788  -0.01457
  31 3   O  1S          0.00077   0.00327  -0.01393  -0.04151  -0.02710
  32        2S          0.11882   0.48021  -0.79102  -0.41241  -0.28645
  33        2PX         0.00497  -0.03743  -0.01785  -0.00874   0.01649
  34        2PY        -0.05080  -0.11311   0.11592  -0.26266   0.12614
  35        2PZ        -0.00999   0.00871  -0.01265   0.01503  -0.00397
  36        3S         -0.26407  -1.20181   2.23626   1.84360   0.93163
  37        3PX        -0.03798   0.47151   0.34498  -0.11893   0.05785
  38        3PY         0.11995   0.62776  -1.13363  -1.24062  -0.32340
  39        3PZ        -0.28882   0.00963   0.01507   0.03950   0.00283
  40        4XX         0.03892   0.19543  -0.31340  -0.53898  -0.07106
  41        4YY        -0.01098  -0.37912   0.68732   1.15707  -0.05065
  42        4ZZ        -0.00361   0.18430  -0.37353  -0.52303  -0.14931
  43        4XY         0.03903  -0.44389  -0.39466   0.24755  -0.19314
  44        4XZ        -0.13862  -0.00853  -0.00080  -0.00902   0.00739
  45        4YZ         0.73247  -0.07231   0.04721  -0.09123  -0.00367
  46 4   F  1S          0.00121   0.02884  -0.01366  -0.00057  -0.00781
  47        2S         -0.00242  -1.07254  -0.19174  -0.31859  -0.43077
  48        2PX         0.01193   0.25467  -0.03863   0.10535   0.06462
  49        2PY         0.01323  -0.10204  -0.11387   0.03341  -0.06614
  50        2PZ         0.01015  -0.00162  -0.00086  -0.00077  -0.00034
  51        3S         -0.01369   2.02357   0.57246   0.64959   0.94257
  52        3PX        -0.02500  -0.90867   0.00071  -0.45023  -0.42434
  53        3PY        -0.04931   0.37750   0.48632  -0.03223   0.32673
  54        3PZ        -0.03535   0.00500   0.00314   0.00550   0.00692
  55        4XX         0.04098   0.42242  -0.25593   0.46158   0.03790
  56        4YY        -0.02482  -0.10192   0.17020  -0.35079   0.06566
  57        4ZZ        -0.00931  -0.27393  -0.05062  -0.13488  -0.18877
  58        4XY         0.03784  -0.29205  -0.40673   0.06497  -0.40922
  59        4XZ        -0.01593   0.05786   0.00809  -0.01805  -0.01230
  60        4YZ        -0.17109  -0.02842   0.00311  -0.00071   0.01913
                          56        57        58        59        60
                           V         V         V         V         V
     Eigenvalues --     3.03649   3.71335   4.11293   4.32132   4.60416
   1 1   F  1S          0.01060  -0.14052  -0.28922  -0.00259  -0.68551
   2        2S          0.11806  -0.34612  -0.87208  -0.19123  -2.67518
   3        2PX        -0.02059  -0.00108  -0.19491   0.00234  -0.25763
   4        2PY        -0.06770  -0.04234  -0.01557   0.09553  -0.19881
   5        2PZ        -0.00061   0.00595  -0.00256   0.00680  -0.01571
   6        3S         -0.37692   1.74414   3.70206   0.42827  10.33776
   7        3PX        -0.45331   0.14011   0.42480   0.77296   1.37256
   8        3PY         0.02122   0.29178  -0.21709   0.07875   1.04478
   9        3PZ        -0.01969  -0.01526  -0.00270   0.00589   0.06700
  10        4XX        -0.64030  -0.52591  -1.14745   0.46800  -2.45305
  11        4YY         0.42154  -0.57429  -1.29944  -0.00860  -2.66472
  12        4ZZ         0.15764  -0.49555  -1.15468  -0.14605  -2.93463
  13        4XY        -0.10359   0.10461  -0.13074   0.32223   0.37943
  14        4XZ        -0.03797  -0.00583  -0.00357   0.02860   0.01865
  15        4YZ        -0.00044   0.00719  -0.01702   0.00867   0.01652
  16 2   C  1S          0.04979  -0.01274   0.24953  -0.34953  -0.14705
  17        2S          0.04174  -0.05969  -1.48374   2.12849   0.54285
  18        2PX        -0.62487   0.00562  -0.08956  -0.04167   0.39726
  19        2PY         0.30172   0.02551   0.18078   0.13296   0.13916
  20        2PZ        -0.00222   0.00502  -0.01061   0.03770   0.01999
  21        3S         -0.27169  -2.68239  -0.69669  -0.89746  -0.82975
  22        3PX        -0.08981  -0.03226  -0.37090  -1.10379   2.60515
  23        3PY        -0.04160  -1.16857   1.61538   0.74293   1.01249
  24        3PZ         0.01142   0.08022   0.02798   0.04534   0.04174
  25        4XX        -0.57205  -0.10749   1.20587  -1.97474  -0.70844
  26        4YY         0.72598   0.07846   1.01791  -1.88874  -0.70436
  27        4ZZ         0.13715   0.16636   0.93784  -1.02953  -0.33755
  28        4XY         1.11516   0.00737   0.04811  -0.08975   0.00104
  29        4XZ         0.00138  -0.00170   0.00633   0.01223  -0.02904
  30        4YZ         0.00095   0.00057  -0.01266  -0.01086  -0.00610
  31 3   O  1S          0.00550  -0.49551   0.19006   0.07379   0.05955
  32        2S         -0.06770  -0.19153   0.34100   0.07054   0.11160
  33        2PX        -0.03513  -0.00276  -0.00775  -0.02061   0.07905
  34        2PY         0.19875   0.21841  -0.03930  -0.27696  -0.13012
  35        2PZ        -0.00909  -0.00534   0.00833   0.01407   0.00949
  36        3S         -0.09242   5.50810  -2.83768  -0.61501  -0.85265
  37        3PX        -0.22703   0.01794   0.07515   0.30965  -0.75067
  38        3PY         0.22427  -1.23873   0.88345  -0.23329   0.02312
  39        3PZ        -0.01278   0.02798  -0.05597  -0.00842  -0.02385
  40        4XX         0.13527  -1.73152   0.62322   0.19979   0.16254
  41        4YY        -0.39212  -1.42027   0.29868   0.62630   0.34670
  42        4ZZ         0.09936  -1.67866   0.76871   0.22948   0.19785
  43        4XY         0.56647  -0.00091  -0.00892  -0.11081   0.21410
  44        4XZ        -0.02191   0.00033   0.00166   0.00918  -0.01950
  45        4YZ         0.03241  -0.00672   0.02016  -0.02179  -0.00434
  46 4   F  1S         -0.03223  -0.16328  -0.44924  -0.43377   0.29068
  47        2S         -0.48400  -0.40212  -1.30634  -1.72695   0.99254
  48        2PX         0.03506   0.01804   0.21426   0.22486  -0.07664
  49        2PY        -0.03577  -0.04027  -0.02972  -0.08984   0.15541
  50        2PZ        -0.00003   0.00417  -0.00424  -0.00773   0.01221
  51        3S          1.15188   2.00100   5.69836   6.40212  -4.14088
  52        3PX        -0.70154  -0.20359  -0.60920  -1.28675   0.13256
  53        3PY         0.36963   0.25236  -0.02293   0.54981  -0.58594
  54        3PZ         0.02336  -0.00985   0.00920   0.03924  -0.03713
  55        4XX         0.48204  -0.57312  -1.76925  -1.21411   1.34765
  56        4YY        -0.25168  -0.70041  -1.87017  -1.77985   1.06310
  57        4ZZ        -0.41149  -0.58697  -1.81324  -1.95992   1.15682
  58        4XY        -0.50009  -0.09981   0.08603  -0.39066   0.05051
  59        4XZ        -0.04607   0.00303   0.00313  -0.02657  -0.00540
  60        4YZ         0.02034   0.00780  -0.01182   0.01242  -0.01128
     Density Matrix:
                           1         2         3         4         5
   1 1   F  1S          2.08533
   2        2S         -0.21504   0.57032
   3        2PX         0.03173  -0.05730   0.69684
   4        2PY         0.01656  -0.02456  -0.10365   0.84886
   5        2PZ         0.00163  -0.00183  -0.00889  -0.00508   0.85877
   6        3S         -0.22450   0.56550  -0.15696  -0.08436  -0.01217
   7        3PX         0.01966  -0.04099   0.42018  -0.08674  -0.00820
   8        3PY         0.01064  -0.01889  -0.08555   0.53661  -0.00423
   9        3PZ         0.00100  -0.00119  -0.00724  -0.00397   0.57572
  10        4XX        -0.02279   0.01440   0.03634  -0.00670  -0.00016
  11        4YY        -0.02044   0.00985  -0.00636   0.02548   0.00033
  12        4ZZ        -0.02007   0.00919  -0.00093   0.00205   0.00272
  13        4XY        -0.00227   0.00441   0.00810   0.02339  -0.00029
  14        4XZ        -0.00013   0.00029   0.00057  -0.00042   0.03199
  15        4YZ        -0.00008   0.00019  -0.00041   0.00104   0.01712
  16 2   C  1S          0.00518  -0.01215  -0.08077  -0.04049  -0.00344
  17        2S          0.00172   0.00319   0.18612   0.09374   0.00873
  18        2PX         0.01468  -0.04695  -0.20677  -0.17673  -0.01098
  19        2PY         0.01180  -0.03738  -0.21555  -0.07853  -0.00823
  20        2PZ         0.00047  -0.00220  -0.00808  -0.00415   0.11429
  21        3S          0.01406  -0.03189   0.06048   0.06433  -0.00420
  22        3PX        -0.00627   0.01386   0.05282  -0.02436  -0.00844
  23        3PY        -0.00455   0.00880  -0.06170   0.12127  -0.00879
  24        3PZ        -0.00013  -0.00014  -0.00105  -0.00120   0.06094
  25        4XX        -0.00412   0.01093  -0.00701   0.03614   0.00115
  26        4YY         0.00197  -0.00362   0.00518  -0.03279  -0.00045
  27        4ZZ         0.00297  -0.00721  -0.01199  -0.00723  -0.00151
  28        4XY        -0.00848   0.01955   0.04253   0.01205   0.00220
  29        4XZ        -0.00037   0.00081   0.00188   0.00170  -0.03088
  30        4YZ        -0.00027   0.00066   0.00190   0.00057  -0.02767
  31 3   O  1S         -0.00062   0.00182   0.00013   0.01673  -0.00079
  32        2S          0.00150  -0.00339  -0.00565  -0.02559  -0.00015
  33        2PX        -0.01955   0.03219   0.04005   0.10955   0.00302
  34        2PY        -0.00952   0.02531   0.03891   0.09051  -0.00357
  35        2PZ        -0.00007  -0.00081   0.00004  -0.00115  -0.14728
  36        3S         -0.00317   0.00802   0.05200  -0.13399   0.01363
  37        3PX        -0.01213   0.01921   0.02230   0.07919   0.00521
  38        3PY        -0.00334   0.00957   0.00042   0.08449  -0.00767
  39        3PZ        -0.00005  -0.00041   0.00201  -0.00255  -0.12377
  40        4XX        -0.00017   0.00036  -0.00385   0.00889  -0.00072
  41        4YY        -0.00027   0.00009   0.00010   0.00467  -0.00015
  42        4ZZ         0.00003   0.00036  -0.00056   0.00512  -0.00114
  43        4XY         0.00028  -0.00005   0.00419  -0.00084  -0.00030
  44        4XZ        -0.00001  -0.00002  -0.00021   0.00019  -0.00217
  45        4YZ        -0.00001   0.00011   0.00020   0.00018   0.00577
  46 4   F  1S          0.00008   0.00111   0.01313  -0.00535  -0.00043
  47        2S          0.00139  -0.00275  -0.02172   0.00169  -0.00130
  48        2PX        -0.01462   0.02349   0.14609  -0.01820   0.00161
  49        2PY        -0.00658  -0.00298   0.01615   0.00155   0.00087
  50        2PZ        -0.00044  -0.00186  -0.00164   0.00111  -0.05488
  51        3S         -0.00402   0.00636  -0.07910   0.05471   0.00780
  52        3PX        -0.00737   0.01052   0.10515  -0.02945  -0.00021
  53        3PY        -0.00469  -0.00170   0.00772  -0.00141   0.00375
  54        3PZ        -0.00030  -0.00127  -0.00189   0.00180  -0.04781
  55        4XX         0.00040  -0.00001   0.00742  -0.00139  -0.00099
  56        4YY         0.00031  -0.00063   0.00403  -0.00743  -0.00067
  57        4ZZ         0.00072  -0.00085   0.00350  -0.00428  -0.00112
  58        4XY         0.00024   0.00007   0.00127  -0.00026  -0.00039
  59        4XZ         0.00001   0.00008   0.00019  -0.00015   0.00055
  60        4YZ        -0.00002  -0.00005  -0.00003  -0.00012  -0.00271
                           6         7         8         9        10
   6        3S          0.62902
   7        3PX        -0.08928   0.25626
   8        3PY        -0.04722  -0.06545   0.34120
   9        3PZ        -0.00753  -0.00619  -0.00312   0.38717
  10        4XX         0.00418   0.02094  -0.00590  -0.00020   0.00330
  11        4YY         0.00403  -0.00553   0.01555   0.00019   0.00045
  12        4ZZ         0.00664  -0.00122   0.00098   0.00181   0.00060
  13        4XY         0.00004   0.00407   0.01432  -0.00024   0.00072
  14        4XZ        -0.00022   0.00025  -0.00034   0.02111   0.00005
  15        4YZ        -0.00012  -0.00033   0.00062   0.01125  -0.00001
  16 2   C  1S          0.01396  -0.05077  -0.02432  -0.00185  -0.00963
  17        2S         -0.07166   0.10815   0.05083   0.00448   0.01925
  18        2PX         0.03674  -0.10806  -0.09584  -0.00629  -0.01016
  19        2PY         0.01904  -0.11970  -0.04102  -0.00461  -0.01681
  20        2PZ         0.00242  -0.00370  -0.00216   0.05815  -0.00111
  21        3S         -0.06391   0.03407   0.03652  -0.00382   0.00655
  22        3PX         0.04431   0.04000  -0.01017  -0.00536   0.00051
  23        3PY         0.03325  -0.03509   0.07810  -0.00561  -0.00625
  24        3PZ         0.00141  -0.00014  -0.00048   0.03207  -0.00028
  25        4XX         0.01117  -0.00513   0.02255   0.00079  -0.00022
  26        4YY        -0.00267   0.00389  -0.02032  -0.00033   0.00016
  27        4ZZ        -0.00257  -0.00687  -0.00401  -0.00086  -0.00136
  28        4XY         0.02259   0.02692   0.00803   0.00156   0.00153
  29        4XZ         0.00091   0.00113   0.00113  -0.02110   0.00006
  30        4YZ         0.00046   0.00124   0.00021  -0.01935   0.00014
  31 3   O  1S         -0.00271  -0.00191   0.00831  -0.00057  -0.00016
  32        2S          0.00775   0.00084  -0.01006  -0.00001   0.00022
  33        2PX         0.14980   0.04906   0.09851   0.00390  -0.00634
  34        2PY         0.03289   0.01821   0.05790  -0.00342   0.00049
  35        2PZ         0.00292   0.00234  -0.00127  -0.11854  -0.00034
  36        3S          0.00665   0.03300  -0.07884   0.00885   0.00482
  37        3PX         0.09485   0.02925   0.06912   0.00477  -0.00439
  38        3PY         0.01934  -0.00182   0.05440  -0.00564  -0.00144
  39        3PZ         0.00147   0.00269  -0.00212  -0.09516  -0.00004
  40        4XX         0.00171  -0.00233   0.00561  -0.00045  -0.00040
  41        4YY        -0.00166   0.00023   0.00271  -0.00002   0.00029
  42        4ZZ         0.00076  -0.00037   0.00321  -0.00083  -0.00011
  43        4XY        -0.00698   0.00111  -0.00213  -0.00031   0.00055
  44        4XZ         0.00028  -0.00007   0.00020  -0.00149  -0.00003
  45        4YZ        -0.00013  -0.00002   0.00014   0.00523   0.00003
  46 4   F  1S         -0.00394   0.00597  -0.00393  -0.00030   0.00034
  47        2S          0.00404  -0.00891   0.00121  -0.00087   0.00035
  48        2PX         0.09519   0.10321  -0.01059   0.00173  -0.00970
  49        2PY         0.08584   0.03114  -0.00113   0.00215  -0.00512
  50        2PZ         0.00966  -0.00002   0.00464  -0.05156  -0.00126
  51        3S          0.00671  -0.04858   0.03247   0.00512  -0.00425
  52        3PX         0.06231   0.07500  -0.01697   0.00039  -0.00591
  53        3PY         0.05473   0.01810  -0.00290   0.00353  -0.00356
  54        3PZ         0.00645  -0.00058   0.00380  -0.04147  -0.00090
  55        4XX        -0.00545   0.00408  -0.00118  -0.00071   0.00163
  56        4YY         0.00335   0.00363  -0.00434  -0.00038   0.00002
  57        4ZZ         0.00013   0.00254  -0.00260  -0.00078   0.00017
  58        4XY        -0.00155   0.00017  -0.00014  -0.00031  -0.00008
  59        4XZ        -0.00023   0.00008  -0.00023   0.00114   0.00003
  60        4YZ         0.00026   0.00005  -0.00002  -0.00218  -0.00002
                          11        12        13        14        15
  11        4YY         0.00159
  12        4ZZ         0.00058   0.00043
  13        4XY         0.00090   0.00016   0.00106
  14        4XZ         0.00000   0.00011   0.00000   0.00129
  15        4YZ         0.00005   0.00007   0.00003   0.00072   0.00042
  16 2   C  1S         -0.00222   0.00074  -0.00698  -0.00049  -0.00031
  17        2S          0.00600   0.00097   0.01267   0.00089   0.00056
  18        2PX        -0.01136  -0.00324  -0.00939  -0.00069  -0.00059
  19        2PY         0.00081  -0.00244  -0.00098  -0.00064  -0.00002
  20        2PZ        -0.00070   0.00019  -0.00052   0.00982   0.00678
  21        3S          0.00228  -0.00015   0.00526   0.00022   0.00027
  22        3PX        -0.00424  -0.00153  -0.00007  -0.00026  -0.00026
  23        3PY         0.00165  -0.00123   0.00260  -0.00035   0.00007
  24        3PZ        -0.00026   0.00008  -0.00006   0.00480   0.00311
  25        4XX         0.00065   0.00014   0.00056   0.00004   0.00004
  26        4YY        -0.00067  -0.00004  -0.00075  -0.00001  -0.00003
  27        4ZZ        -0.00052  -0.00019  -0.00083  -0.00011  -0.00007
  28        4XY        -0.00028  -0.00008   0.00109   0.00013   0.00006
  29        4XZ         0.00005  -0.00011   0.00010  -0.00111  -0.00069
  30        4YZ        -0.00002  -0.00003   0.00001  -0.00070  -0.00017
  31 3   O  1S         -0.00017   0.00019  -0.00008  -0.00001   0.00001
  32        2S          0.00028  -0.00027   0.00042  -0.00005  -0.00001
  33        2PX        -0.00891  -0.00441   0.00276  -0.00009   0.00010
  34        2PY        -0.00298   0.00103  -0.00510   0.00015   0.00002
  35        2PZ        -0.00047  -0.00031  -0.00007   0.00132   0.00366
  36        3S         -0.00267   0.00123  -0.00466   0.00048  -0.00005
  37        3PX        -0.00546  -0.00281   0.00193   0.00005   0.00015
  38        3PY        -0.00090   0.00012  -0.00163  -0.00012   0.00001
  39        3PZ        -0.00033  -0.00021  -0.00013  -0.00031   0.00185
  40        4XX         0.00007  -0.00007   0.00010  -0.00003  -0.00000
  41        4YY         0.00048  -0.00005   0.00081  -0.00002   0.00000
  42        4ZZ         0.00003  -0.00003   0.00008  -0.00002   0.00001
  43        4XY         0.00063   0.00026   0.00011   0.00001  -0.00000
  44        4XZ        -0.00002  -0.00002   0.00000  -0.00008  -0.00005
  45        4YZ         0.00003   0.00001  -0.00000  -0.00024  -0.00031
  46 4   F  1S          0.00004   0.00070  -0.00030  -0.00002  -0.00004
  47        2S         -0.00014  -0.00051   0.00007  -0.00006  -0.00004
  48        2PX        -0.00440  -0.00412   0.00089   0.00014   0.00004
  49        2PY        -0.01162  -0.00681  -0.00002   0.00016  -0.00016
  50        2PZ        -0.00084  -0.00138   0.00034  -0.00020  -0.00303
  51        3S          0.00389   0.00043   0.00032   0.00021   0.00030
  52        3PX        -0.00419  -0.00305   0.00015   0.00004  -0.00005
  53        3PY        -0.00734  -0.00435  -0.00016   0.00022  -0.00005
  54        3PZ        -0.00050  -0.00096   0.00025  -0.00074  -0.00246
  55        4XX         0.00004   0.00017   0.00030  -0.00002  -0.00003
  56        4YY        -0.00068  -0.00028  -0.00012  -0.00002  -0.00003
  57        4ZZ        -0.00030  -0.00010  -0.00007  -0.00003  -0.00004
  58        4XY         0.00023   0.00016  -0.00014  -0.00002  -0.00000
  59        4XZ         0.00003   0.00004  -0.00002  -0.00013   0.00000
  60        4YZ        -0.00003  -0.00003   0.00000  -0.00002  -0.00002
                          16        17        18        19        20
  16 2   C  1S          2.04543
  17        2S         -0.07718   0.39457
  18        2PX        -0.00039   0.00012   0.31141
  19        2PY        -0.02416   0.05843   0.00434   0.40128
  20        2PZ        -0.00106   0.00204   0.00048  -0.00140   0.32901
  21        3S         -0.07675   0.16703   0.01727   0.00635   0.01009
  22        3PX        -0.00451   0.00836   0.04042  -0.00800  -0.00032
  23        3PY         0.00467  -0.00942  -0.00926   0.02691   0.00285
  24        3PZ        -0.00270   0.00594  -0.00013   0.00032   0.15045
  25        4XX        -0.01054  -0.01257  -0.00068  -0.02965   0.00005
  26        4YY        -0.01564  -0.00271  -0.00044   0.01646   0.00044
  27        4ZZ        -0.00910  -0.02197   0.00253  -0.00108  -0.00113
  28        4XY        -0.00055   0.00255  -0.01748  -0.00722  -0.00019
  29        4XZ        -0.00000   0.00005  -0.00148  -0.00020  -0.00227
  30        4YZ        -0.00002   0.00003  -0.00019  -0.00182   0.01503
  31 3   O  1S          0.01047  -0.00990   0.00075  -0.03931   0.00174
  32        2S         -0.02481   0.02725  -0.00226   0.09293  -0.00422
  33        2PX        -0.00431   0.01197   0.17913  -0.00241  -0.00095
  34        2PY         0.11165  -0.27968   0.00421  -0.37225   0.02070
  35        2PZ        -0.00707   0.01596  -0.00056   0.01391   0.36436
  36        3S          0.01827  -0.08180  -0.00044  -0.03330  -0.00271
  37        3PX        -0.00158   0.00562   0.11329  -0.00066  -0.00061
  38        3PY         0.05495  -0.13506   0.00333  -0.17687   0.01206
  39        3PZ        -0.00376   0.00821  -0.00032   0.00689   0.22658
  40        4XX         0.00144  -0.00340   0.00006  -0.00354   0.00007
  41        4YY        -0.01093   0.02627  -0.00064   0.02223  -0.00194
  42        4ZZ         0.00067  -0.00148   0.00002  -0.00348   0.00142
  43        4XY         0.00019  -0.00048  -0.01513  -0.00014   0.00005
  44        4XZ         0.00000  -0.00000   0.00057   0.00003  -0.00003
  45        4YZ         0.00066  -0.00146   0.00003  -0.00136  -0.02484
  46 4   F  1S          0.00184   0.00528  -0.00755   0.00615   0.00024
  47        2S         -0.00650  -0.00498   0.03062  -0.02242  -0.00141
  48        2PX         0.07433  -0.17055  -0.24151   0.18535   0.00512
  49        2PY        -0.02588   0.06042   0.12896  -0.04764  -0.00191
  50        2PZ        -0.00296   0.00747   0.00987  -0.00647   0.09286
  51        3S          0.02242  -0.07524  -0.05037   0.01721   0.00199
  52        3PX         0.04807  -0.10381  -0.13703   0.11409   0.00231
  53        3PY        -0.01501   0.03266   0.07523  -0.02765  -0.00113
  54        3PZ        -0.00163   0.00403   0.00600  -0.00398   0.04992
  55        4XX        -0.01101   0.02132   0.01498  -0.01474  -0.00083
  56        4YY        -0.00168   0.00410   0.00833   0.00017  -0.00050
  57        4ZZ        -0.00031   0.00180   0.00365  -0.00195   0.00005
  58        4XY         0.00514  -0.00963  -0.00803  -0.00053   0.00033
  59        4XZ         0.00043  -0.00081  -0.00068   0.00049  -0.00805
  60        4YZ        -0.00019   0.00037   0.00038   0.00004   0.00430
                          21        22        23        24        25
  21        3S          0.08982
  22        3PX        -0.00001   0.04433
  23        3PY         0.00728   0.00305   0.05812
  24        3PZ         0.00571   0.00039   0.00048   0.07061
  25        4XX        -0.00115  -0.00092   0.01001  -0.00016   0.00534
[...]
  42        4ZZ         0.00017  -0.00000   0.00090  -0.00000   0.00003
  43        4XY         0.00000   0.00132   0.00000   0.00000   0.00000
  44        4XZ        -0.00000   0.00000  -0.00000   0.00000   0.00000
  45        4YZ         0.00001   0.00000   0.00000   0.00179  -0.00000
  46 4   F  1S          0.00043   0.00046   0.00011   0.00000  -0.00004
  47        2S         -0.00521  -0.00542  -0.00132   0.00000   0.00138
  48        2PX         0.00915  -0.00278   0.00533   0.00001   0.00080
  49        2PY         0.00271   0.00253   0.00792   0.00000   0.00289
  50        2PZ        -0.00001   0.00005   0.00002   0.00673   0.00001
  51        3S         -0.02528  -0.02492  -0.00585  -0.00001   0.00333
  52        3PX         0.02412  -0.00456   0.01053   0.00001   0.00145
  53        3PY         0.00695   0.00432   0.02594   0.00001   0.00516
  54        3PZ        -0.00004   0.00010   0.00004   0.01749   0.00001
  55        4XX         0.00302   0.00001   0.00121   0.00000   0.00011
  56        4YY         0.00046   0.00149  -0.00024   0.00000   0.00004
  57        4ZZ         0.00014   0.00054   0.00005  -0.00000   0.00001
  58        4XY         0.00034   0.00003   0.00032   0.00000   0.00016
  59        4XZ         0.00000   0.00000   0.00000   0.00067   0.00000
  60        4YZ         0.00000   0.00000   0.00000   0.00015   0.00000
                          26        27        28        29        30
  26        4YY         0.00357
  27        4ZZ         0.00005   0.00160
  28        4XY         0.00000  -0.00000   0.00814
  29        4XZ        -0.00000  -0.00000   0.00000   0.00195
  30        4YZ        -0.00000  -0.00000   0.00000   0.00000   0.00301
  31 3   O  1S         -0.00064   0.00000  -0.00000   0.00000  -0.00000
  32        2S          0.00792  -0.00041   0.00000  -0.00000   0.00002
  33        2PX         0.00001  -0.00000   0.00806   0.00000  -0.00000
  34        2PY         0.00354  -0.00066   0.00002  -0.00000   0.00006
  35        2PZ         0.00002   0.00001   0.00000   0.00000   0.00558
  36        3S          0.01310  -0.00115   0.00000  -0.00000   0.00002
  37        3PX         0.00000   0.00000   0.00827   0.00001   0.00000
  38        3PY         0.00308  -0.00189   0.00001  -0.00000   0.00002
  39        3PZ         0.00002  -0.00000   0.00000   0.00000   0.00614
  40        4XX        -0.00022   0.00001   0.00000  -0.00000  -0.00000
  41        4YY        -0.00006  -0.00022   0.00000   0.00000   0.00001
  42        4ZZ        -0.00012   0.00001  -0.00000   0.00000   0.00000
  43        4XY        -0.00000   0.00000   0.00062   0.00000   0.00000
  44        4XZ        -0.00000  -0.00000   0.00000   0.00002  -0.00000
  45        4YZ         0.00000   0.00000   0.00000   0.00000   0.00080
  46 4   F  1S          0.00001   0.00000  -0.00006  -0.00000  -0.00000
  47        2S         -0.00024  -0.00006   0.00131   0.00000   0.00000
  48        2PX        -0.00042  -0.00012   0.00513   0.00001   0.00001
  49        2PY         0.00003  -0.00003   0.00001   0.00000   0.00000
  50        2PZ        -0.00000   0.00000   0.00001   0.00149   0.00052
  51        3S         -0.00086  -0.00020   0.00217   0.00001   0.00000
  52        3PX        -0.00149  -0.00107   0.00466   0.00001   0.00001
  53        3PY        -0.00076  -0.00023  -0.00009   0.00001   0.00000
  54        3PZ        -0.00001  -0.00000   0.00001   0.00368   0.00129
  55        4XX        -0.00013  -0.00013   0.00042   0.00000   0.00000
  56        4YY        -0.00001  -0.00001  -0.00000   0.00000  -0.00000
  57        4ZZ        -0.00000  -0.00001  -0.00001   0.00000   0.00000
  58        4XY        -0.00000  -0.00004   0.00001   0.00000  -0.00000
  59        4XZ        -0.00000   0.00000   0.00000   0.00019   0.00005
  60        4YZ        -0.00000   0.00000   0.00000   0.00005  -0.00000
                          31        32        33        34        35
  31 3   O  1S          2.07973
  32        2S         -0.04348   0.52192
  33        2PX         0.00000   0.00000   0.81328
  34        2PY         0.00000   0.00000   0.00000   0.56897
  35        2PZ         0.00000   0.00000   0.00000   0.00000   0.58063
  36        3S         -0.04223   0.45895   0.00000   0.00000   0.00000
  37        3PX         0.00000   0.00000   0.26516   0.00000   0.00000
  38        3PY         0.00000   0.00000   0.00000   0.14494   0.00000
  39        3PZ         0.00000   0.00000   0.00000   0.00000   0.19238
  40        4XX        -0.00037  -0.00576   0.00000   0.00000   0.00000
  41        4YY        -0.00036  -0.00507   0.00000   0.00000   0.00000
  42        4ZZ        -0.00044  -0.00331   0.00000   0.00000   0.00000
  43        4XY        -0.00000  -0.00000   0.00000   0.00000   0.00000
  44        4XZ         0.00000   0.00000   0.00000   0.00000   0.00000
  45        4YZ        -0.00000   0.00000   0.00000   0.00000   0.00000
  46 4   F  1S          0.00000   0.00000   0.00000   0.00000   0.00000
  47        2S          0.00000  -0.00000  -0.00000  -0.00000  -0.00000
  48        2PX         0.00000  -0.00000  -0.00001  -0.00001  -0.00000
  49        2PY         0.00000  -0.00000  -0.00001  -0.00001  -0.00000
  50        2PZ         0.00000   0.00000   0.00000  -0.00000  -0.00000
  51        3S         -0.00000   0.00004  -0.00087  -0.00033   0.00000
  52        3PX         0.00000  -0.00009  -0.00078  -0.00081  -0.00000
  53        3PY         0.00001  -0.00024  -0.00179  -0.00128  -0.00000
  54        3PZ         0.00000   0.00000   0.00000  -0.00000  -0.00045
  55        4XX        -0.00000  -0.00000   0.00000   0.00000  -0.00000
  56        4YY         0.00000  -0.00000   0.00003   0.00001  -0.00000
  57        4ZZ         0.00000  -0.00000   0.00000  -0.00000   0.00000
  58        4XY         0.00000  -0.00000  -0.00001   0.00002  -0.00000
  59        4XZ         0.00000   0.00000   0.00000   0.00000   0.00000
  60        4YZ        -0.00000   0.00000   0.00000   0.00000   0.00000
                          36        37        38        39        40
  36        3S          0.80238
  37        3PX         0.00000   0.34391
  38        3PY         0.00000   0.00000   0.15239
  39        3PZ         0.00000   0.00000   0.00000   0.25551
  40        4XX        -0.00944   0.00000   0.00000   0.00000   0.00059
  41        4YY        -0.01780   0.00000   0.00000   0.00000   0.00002
  42        4ZZ        -0.00492   0.00000   0.00000   0.00000   0.00012
  43        4XY         0.00000   0.00000   0.00000   0.00000  -0.00000
  44        4XZ        -0.00000   0.00000   0.00000   0.00000  -0.00000
  45        4YZ         0.00000   0.00000   0.00000   0.00000  -0.00000
  46 4   F  1S         -0.00000   0.00003   0.00001  -0.00000  -0.00000
  47        2S          0.00004  -0.00050  -0.00032  -0.00000   0.00000
  48        2PX         0.00027  -0.00054  -0.00051   0.00000  -0.00000
  49        2PY        -0.00176  -0.00180  -0.00236  -0.00000   0.00001
  50        2PZ        -0.00000   0.00000  -0.00000  -0.00070   0.00000
  51        3S          0.00091  -0.00722  -0.00229   0.00000   0.00002
  52        3PX         0.00187  -0.00262  -0.00234   0.00000  -0.00003
  53        3PY        -0.01037  -0.00973  -0.00923  -0.00000   0.00036
  54        3PZ        -0.00000   0.00000  -0.00000  -0.00507   0.00000
  55        4XX         0.00006   0.00004   0.00007  -0.00000  -0.00000
  56        4YY        -0.00014   0.00049   0.00004  -0.00000   0.00000
  57        4ZZ        -0.00001   0.00008  -0.00000  -0.00000  -0.00000
  58        4XY        -0.00020  -0.00006   0.00006  -0.00000   0.00000
  59        4XZ        -0.00000   0.00000  -0.00000  -0.00000   0.00000
  60        4YZ         0.00000   0.00000   0.00000   0.00005  -0.00000
                          41        42        43        44        45
  41        4YY         0.00321
  42        4ZZ         0.00001   0.00027
  43        4XY        -0.00000  -0.00000   0.00190
  44        4XZ         0.00000   0.00000  -0.00000   0.00002
  45        4YZ         0.00000  -0.00000  -0.00000   0.00000   0.00238
  46 4   F  1S         -0.00000   0.00000   0.00000   0.00000  -0.00000
  47        2S         -0.00000   0.00000  -0.00000  -0.00000  -0.00000
  48        2PX        -0.00000  -0.00000   0.00000   0.00000  -0.00000
  49        2PY         0.00001   0.00000  -0.00000  -0.00000  -0.00000
  50        2PZ         0.00000  -0.00000   0.00000   0.00000  -0.00000
  51        3S         -0.00007   0.00000  -0.00017  -0.00000   0.00000
  52        3PX        -0.00004  -0.00000   0.00001  -0.00000  -0.00000
  53        3PY         0.00012   0.00007  -0.00009  -0.00000  -0.00000
  54        3PZ         0.00000   0.00000   0.00000   0.00002  -0.00008
  55        4XX         0.00001  -0.00000   0.00000   0.00000  -0.00000
  56        4YY         0.00001   0.00000   0.00001   0.00000  -0.00000
  57        4ZZ         0.00000   0.00000   0.00000  -0.00000   0.00000
  58        4XY         0.00002   0.00000   0.00000  -0.00000  -0.00000
  59        4XZ         0.00000  -0.00000   0.00000   0.00000   0.00000
  60        4YZ        -0.00000   0.00000   0.00000   0.00000   0.00000
                          46        47        48        49        50
  46 4   F  1S          2.08646
  47        2S         -0.05246   0.56445
  48        2PX         0.00000   0.00000   0.65428
  49        2PY         0.00000   0.00000   0.00000   0.87064
  50        2PZ         0.00000   0.00000   0.00000  -0.00000   0.86058
  51        3S         -0.04011   0.44348   0.00000   0.00000   0.00000
  52        3PX         0.00000   0.00000   0.20670   0.00000   0.00000
  53        3PY         0.00000   0.00000   0.00000   0.28485  -0.00000
  54        3PZ         0.00000   0.00000   0.00000  -0.00000   0.29403
  55        4XX        -0.00053   0.00682   0.00000   0.00000   0.00000
  56        4YY        -0.00043   0.00293   0.00000   0.00000   0.00000
  57        4ZZ        -0.00043   0.00281   0.00000   0.00000   0.00000
  58        4XY         0.00000  -0.00000   0.00000   0.00000   0.00000
  59        4XZ         0.00000  -0.00000   0.00000   0.00000   0.00000
  60        4YZ        -0.00000   0.00000   0.00000   0.00000   0.00000
                          51        52        53        54        55
  51        3S          0.64710
  52        3PX         0.00000   0.26411
  53        3PY         0.00000   0.00000   0.37436
  54        3PZ         0.00000   0.00000  -0.00000   0.40323
  55        4XX         0.00461   0.00000   0.00000   0.00000   0.00351
  56        4YY         0.00202   0.00000   0.00000   0.00000   0.00020
  57        4ZZ         0.00318   0.00000   0.00000   0.00000   0.00019
  58        4XY        -0.00000   0.00000   0.00000   0.00000  -0.00000
  59        4XZ         0.00000   0.00000   0.00000   0.00000  -0.00000
  60        4YZ        -0.00000   0.00000   0.00000   0.00000   0.00000
                          56        57        58        59        60
  56        4YY         0.00090
  57        4ZZ         0.00015   0.00032
  58        4XY        -0.00000  -0.00000   0.00096
  59        4XZ        -0.00000  -0.00000   0.00000   0.00109
  60        4YZ         0.00000   0.00000  -0.00000  -0.00000   0.00017
     Gross orbital populations:
                           1
   1 1   F  1S          1.99321
   2        2S          0.96586
   3        2PX         0.98385
   4        2PY         1.15246
   5        2PZ         1.16046
   6        3S          0.92935
   7        3PX         0.56653
   8        3PY         0.64633
   9        3PZ         0.69974
  10        4XX         0.02950
  11        4YY         0.01543
  12        4ZZ         0.01088
  13        4XY         0.00607
  14        4XZ         0.00397
  15        4YZ         0.00162
  16 2   C  1S          1.99157
  17        2S          0.71938
  18        2PX         0.56207
  19        2PY         0.67856
  20        2PZ         0.54050
  21        3S          0.18640
  22        3PX         0.10020
  23        3PY         0.08036
  24        3PZ         0.27410
  25        4XX         0.01004
  26        4YY         0.01730
  27        4ZZ        -0.02907
  28        4XY         0.05804
  29        4XZ         0.01459
  30        4YZ         0.02160
  31 3   O  1S          1.99280
  32        2S          0.92570
  33        2PX         1.11882
  34        2PY         0.87430
  35        2PZ         0.82856
  36        3S          1.01635
  37        3PX         0.66255
  38        3PY         0.40536
  39        3PZ         0.54998
  40        4XX        -0.01320
  41        4YY         0.00480
  42        4ZZ        -0.00792
  43        4XY         0.00684
  44        4XZ         0.00008
  45        4YZ         0.01055
  46 4   F  1S          1.99332
  47        2S          0.96185
  48        2PX         0.92662
  49        2PY         1.17624
  50        2PZ         1.16537
  51        3S          0.96527
  52        3PX         0.57864
  53        3PY         0.68700
  54        3PZ         0.72153
  55        4XX         0.03174
  56        4YY         0.00995
  57        4ZZ         0.00766
  58        4XY         0.00449
  59        4XZ         0.00309
  60        4YZ         0.00071
          Condensed to atoms (all electrons):
               1          2          3          4
     1  F    8.943419   0.301638  -0.055757  -0.024024
     2  C    0.301638   4.146967   0.507546   0.269501
     3  O   -0.055757   0.507546   7.983934  -0.060139
     4  F   -0.024024   0.269501  -0.060139   9.048153
 Mulliken charges:
               1
     1  F   -0.165275
     2  C    0.774348
     3  O   -0.375582
     4  F   -0.233490
 Sum of Mulliken charges =  -0.00000
 Mulliken charges with hydrogens summed into heavy atoms:
               1
     1  F   -0.165275
     2  C    0.774348
     3  O   -0.375582
     4  F   -0.233490
 Electronic spatial extent (au):  <R**2>=            210.6472
 Charge=             -0.0000 electrons
 Dipole moment (field-independent basis, Debye):
    X=             -0.4480    Y=             -1.6135    Z=              0.0977  Tot=              1.6774
 Quadrupole moment (field-independent basis, Debye-Ang):
   XX=            -20.5390   YY=            -22.5589   ZZ=            -18.5537
   XY=              0.3271   XZ=             -0.0081   YZ=             -0.0117
 Traceless Quadrupole moment (field-independent basis, Debye-Ang):
   XX=              0.0116   YY=             -2.0084   ZZ=              1.9968
   XY=              0.3271   XZ=             -0.0081   YZ=             -0.0117
 Octapole moment (field-independent basis, Debye-Ang**2):
  XXX=             -0.4013  YYY=             -8.4981  ZZZ=             -0.1130  XYY=              0.0583
  XXY=             -1.6913  XXZ=             -0.1005  XZZ=             -0.0603  YZZ=             -1.6901
  YYZ=             -0.0881  XYZ=             -0.0019
 Hexadecapole moment (field-independent basis, Debye-Ang**3):
 XXXX=            -90.0012 YYYY=            -91.8538 ZZZZ=            -11.9606 XXXY=              0.8257
 XXXZ=             -0.0113 YYYX=              0.9027 YYYZ=             -0.0366 ZZZX=              0.0026
 ZZZY=             -0.0087 XXYY=            -30.2985 XXZZ=            -17.2969 YYZZ=            -16.5056
 XXYZ=              0.0625 YYXZ=              0.0066 ZZXY=              0.1927
 N-N= 1.137121241436D+02 E-N=-9.686497817085D+02  KE= 3.102317903039D+02
 Orbital energies and kinetic energies (alpha):
                                 1                 2
   1         O               -24.806841         37.082472
   2         O               -24.766316         37.084507
   3         O               -19.198046         29.032444
   4         O               -10.466780         15.895831
   5         O                -1.327969          3.550717
   6         O                -1.247097          3.735681
   7         O                -1.063085          2.831621
   8         O                -0.694239          3.069103
   9         O                -0.613214          2.841030
  10         O                -0.562754          2.492728
  11         O                -0.538758          2.877484
  12         O                -0.474379          3.189483
  13         O                -0.470960          3.196206
  14         O                -0.451001          3.041919
  15         O                -0.377787          2.537770
  16         O                -0.333703          2.656901
  17         V                -0.055386          2.605002
  18         V                 0.016456          3.523726
  19         V                 0.226403          3.354742
  20         V                 0.295567          2.419031
  21         V                 0.467293          2.243627
  22         V                 0.475323          1.896049
  23         V                 0.480462          1.934379
  24         V                 0.557789          3.007980
  25         V                 0.840519          2.659579
  26         V                 0.940448          3.565117
  27         V                 0.946631          3.461624
  28         V                 1.041105          3.270257
  29         V                 1.086509          4.305510
  30         V                 1.118113          3.404395
  31         V                 1.223085          3.053799
  32         V                 1.260824          4.284237
  33         V                 1.271269          4.072866
  34         V                 1.334615          3.646279
  35         V                 1.357272          2.672419
  36         V                 1.370588          2.832121
  37         V                 1.565508          3.669855
  38         V                 1.623628          3.420577
  39         V                 1.746584          3.181052
  40         V                 1.756499          2.830614
  41         V                 1.775593          2.843111
  42         V                 1.794175          3.051970
  43         V                 1.802919          2.829691
  44         V                 1.830299          3.124318
  45         V                 1.872530          3.405626
  46         V                 1.915985          3.390254
  47         V                 1.936236          3.305759
  48         V                 2.032161          3.499642
  49         V                 2.103101          3.673471
  50         V                 2.473699          3.816665
  51         V                 2.567519          3.894395
  52         V                 2.633195          5.431780
  53         V                 2.702334          5.277930
  54         V                 2.900752          5.003382
  55         V                 2.989220          5.513338
  56         V                 3.036487          4.757741
  57         V                 3.713354         10.407868
  58         V                 4.112930         11.277732
  59         V                 4.321318         10.234767
  60         V                 4.604161         12.634473
 Total kinetic energy from orbitals= 3.102317903039D+02
 Unable to Open any file for archive entry.
 1\1\GINC-SPARTAN-BM162\SP\RB3LYP\6-31G(d)\C1F2O1\AKHALILOV\20-Mar-2025
 \0\\# B3LYP/6-31G(d) pop=full density=current\\CF2O Time step 15\\0,1\
 F,0,1.182654,-0.580791,0.043635\C,0,0.043764,0.073494,-0.038015\O,0,0.
 002524,1.327435,-0.084613\F,0,-1.212422,-0.583209,0.051613\\Version=ES
 64L-G16RevC.01\State=1-A\HF=-312.9803517\RMSD=5.774e-09\Dipole=0.20293
 39,-0.6279315,0.0046072\Quadrupole=0.0265041,-1.495298,1.4687938,-0.17
 81632,0.011376,0.2173606\PG=C01 [X(C1F2O1)]\\@
 The archive entry for this job was punched.


 CONFIDENCE: THAT QUIET ASSURED FEELING YOU HAVE
 JUST BEFORE YOU FALL FLAT ON YOUR FACE.
 Job cpu time:       0 days  0 hours  0 minutes  2.6 seconds.
 Elapsed time:       0 days  0 hours  0 minutes  0.9 seconds.
 File lengths (MBytes):  RWF=      6 Int=      0 D2E=      0 Chk=      1 Scr=      1
 Normal termination of Gaussian 16 at Thu Mar 20 00:07:39 2025.
