 Entering Gaussian System, Link 0=g16
 Input=CF2O_1000K_step0040.gjf
 Output=CF2O_1000K_step0040.log
 Initial command:
 /apps/easybuild-2022/easybuild/software/Compiler/NVHPC/22.11-CUDA-11.7.0/Gaussian/g16c01-CUDA-11.7.0/g16/l1.exe "/tmp/Gau-265489.inp" -scrdir="/tmp/"
 Default is to use a total of   4 processors:
                                4 via shared-memory
                                1 via Linda
 Entering Link 1 = /apps/easybuild-2022/easybuild/software/Compiler/NVHPC/22.11-CUDA-11.7.0/Gaussian/g16c01-CUDA-11.7.0/g16/l1.exe PID=    265490.
  
 Copyright (c) 1988-2019, Gaussian, Inc.  All Rights Reserved.
  
 This is part of the Gaussian(R) 16 program.  It is based on
 the Gaussian(R) 09 system (copyright 2009, Gaussian, Inc.),
 the Gaussian(R) 03 system (copyright 2003, Gaussian, Inc.),
 the Gaussian(R) 98 system (copyright 1998, Gaussian, Inc.),
 the Gaussian(R) 94 system (copyright 1995, Gaussian, Inc.),
 the Gaussian 92(TM) system (copyright 1992, Gaussian, Inc.),
 the Gaussian 90(TM) system (copyright 1990, Gaussian, Inc.),
 the Gaussian 88(TM) system (copyright 1988, Gaussian, Inc.),
 the Gaussian 86(TM) system (copyright 1986, Carnegie Mellon
 University), and the Gaussian 82(TM) system (copyright 1983,
 Carnegie Mellon University). Gaussian is a federally registered
 trademark of Gaussian, Inc.
  
 This software contains proprietary and confidential information,
 including trade secrets, belonging to Gaussian, Inc.
  
 This software is provided under written license and may be
 used, copied, transmitted, or stored only in accord with that
 written license.
  
 The following legend is applicable only to US Government
 contracts under FAR:
  
                    RESTRICTED RIGHTS LEGEND
  
 Use, reproduction and disclosure by the US Government is
 subject to restrictions as set forth in subparagraphs (a)
 and (c) of the Commercial Computer Software - Restricted
 Rights clause in FAR 52.227-19.
  
 Gaussian, Inc.
 340 Quinnipiac St., Bldg. 40, Wallingford CT 06492
  
  
 ---------------------------------------------------------------
 Warning -- This program may not be used in any manner that
 competes with the business of Gaussian, Inc. or will provide
 assistance to any competitor of Gaussian, Inc.  The licensee
 of this program is prohibited from giving any competitor of
 Gaussian, Inc. access to this program.  By using this program,
 the user acknowledges that Gaussian, Inc. is engaged in the
 business of creating and licensing software in the field of
 computational chemistry and represents and warrants to the
 licensee that it is not a competitor of Gaussian, Inc. and that
 it will not use this program in any manner prohibited above.
 ---------------------------------------------------------------
  

 Cite this work as:
 Gaussian 16, Revision C.01,
 M. J. Frisch, G. W. Trucks, H. B. Schlegel, G. E. Scuseria, 
 M. A. Robb, J. R. Cheeseman, G. Scalmani, V. Barone, 
 G. A. Petersson, H. Nakatsuji, X. Li, M. Caricato, A. V. Marenich, 
 J. Bloino, B. G. Janesko, R. Gomperts, B. Mennucci, H. P. Hratchian, 
 J. V. Ortiz, A. F. Izmaylov, J. L. Sonnenberg, D. Williams-Young, 
 F. Ding, F. Lipparini, F. Egidi, J. Goings, B. Peng, A. Petrone, 
 T. Henderson, D. Ranasinghe, V. G. Zakrzewski, J. Gao, N. Rega, 
 G. Zheng, W. Liang, M. Hada, M. Ehara, K. Toyota, R. Fukuda, 
 J. Hasegawa, M. Ishida, T. Nakajima, Y. Honda, O. Kitao, H. Nakai, 
 T. Vreven, K. Throssell, J. A. Montgomery, Jr., J. E. Peralta, 
 F. Ogliaro, M. J. Bearpark, J. J. Heyd, E. N. Brothers, K. N. Kudin, 
 V. N. Staroverov, T. A. Keith, R. Kobayashi, J. Normand, 
 K. Raghavachari, A. P. Rendell, J. C. Burant, S. S. Iyengar, 
 J. Tomasi, M. Cossi, J. M. Millam, M. Klene, C. Adamo, R. Cammi, 
 J. W. Ochterski, R. L. Martin, K. Morokuma, O. Farkas, 
 J. B. Foresman, and D. J. Fox, Gaussian, Inc., Wallingford CT, 2019.
 
 ******************************************
 Gaussian 16:  ES64L-G16RevC.01  3-Jul-2019
                20-Mar-2025 
 ******************************************
 %chk=CF2O_1000K_step0040.chk
 %mem=8GB
 %nprocshared=4
 Will use up to    4 processors via shared memory.
 -----------------------------------------
 # B3LYP/6-31G(d) pop=full density=current
 -----------------------------------------
 1/30=1,38=1,172=1/1;
 2/12=2,17=6,18=5,40=1/2;
 3/5=1,6=6,7=1,11=2,25=1,30=1,74=-5/1,2,3;
 4//1;
 5/5=2,38=5/2;
 6/7=3,22=-1,28=1/1;
 99/5=1,9=1/99;
 -----------------
 CF2O Time step 40
 -----------------
 Symbolic Z-matrix:
 Charge =  0 Multiplicity = 1
 F                     1.22024  -0.5821    0.05351 
 C                     0.1011    0.07667  -0.08548 
 O                     0.00011   1.34737  -0.07404 
 F                    -1.28419  -0.60068   0.06282 
 
                          Input orientation:                          
 ---------------------------------------------------------------------
 Center     Atomic      Atomic             Coordinates (Angstroms)
 Number     Number       Type             X           Y           Z
 ---------------------------------------------------------------------
      1          9           0        1.220244   -0.582100    0.053507
      2          6           0        0.101096    0.076668   -0.085483
      3          8           0        0.000105    1.347366   -0.074038
      4          9           0       -1.284188   -0.600684    0.062820
 ---------------------------------------------------------------------
                    Distance matrix (angstroms):
                    1          2          3          4
     1  F    0.000000
     2  C    1.306057   0.000000
     3  O    2.286448   1.274756   0.000000
     4  F    2.504518   1.549132   2.337314   0.000000
 Stoichiometry    CF2O
 Framework group  C1[X(CF2O)]
 Deg. of freedom     6
 Full point group                 C1      NOp   1
 Largest Abelian subgroup         C1      NOp   1
 Largest concise Abelian subgroup C1      NOp   1
                         Standard orientation:                         
 ---------------------------------------------------------------------
 Center     Atomic      Atomic             Coordinates (Angstroms)
 Number     Number       Type             X           Y           Z
 ---------------------------------------------------------------------
      1          9           0       -1.165692   -0.700848   -0.019725
      2          6           0       -0.105400    0.055355    0.078883
      3          8           0       -0.107946    1.326224   -0.020566
      4          9           0        1.331910   -0.514921   -0.014583
 ---------------------------------------------------------------------
 Rotational constants (GHZ):          11.8611142           8.4325710           4.9375522
 Standard basis: 6-31G(d) (6D, 7F)
 There are    60 symmetry adapted cartesian basis functions of A   symmetry.
 There are    60 symmetry adapted basis functions of A   symmetry.
    60 basis functions,   112 primitive gaussians,    60 cartesian basis functions
    16 alpha electrons       16 beta electrons
       nuclear repulsion energy       110.3304390927 Hartrees.
 NAtoms=    4 NActive=    4 NUniq=    4 SFac= 1.00D+00 NAtFMM=   60 NAOKFM=F Big=F
 Integral buffers will be    131072 words long.
 Raffenetti 2 integral format.
 Two-electron integral symmetry is turned on.
 One-electron integrals computed using PRISM.
 NBasis=    60 RedAO= T EigKep=  4.50D-03  NBF=    60
 NBsUse=    60 1.00D-06 EigRej= -1.00D+00 NBFU=    60
 ExpMin= 1.69D-01 ExpMax= 7.00D+03 ExpMxC= 1.05D+03 IAcc=3 IRadAn=         5 AccDes= 0.00D+00
 Harris functional with IExCor=  402 and IRadAn=       5 diagonalized for initial guess.
 HarFok:  IExCor=  402 AccDes= 0.00D+00 IRadAn=         5 IDoV= 1 UseB2=F ITyADJ=14
 ICtDFT=  3500011 ScaDFX=  1.000000  1.000000  1.000000  1.000000
 FoFCou: FMM=F IPFlag=           0 FMFlag=      100000 FMFlg1=           0
         NFxFlg=           0 DoJE=T BraDBF=F KetDBF=T FulRan=T
         wScrn=  0.000000 ICntrl=       500 IOpCl=  0 I1Cent=   200000004 NGrid=           0
         NMat0=    1 NMatS0=      1 NMatT0=    0 NMatD0=    1 NMtDS0=    0 NMtDT0=    0
 Petite list used in FoFCou.
 Keep R1 ints in memory in canonical form, NReq=5215649.
 Requested convergence on RMS density matrix=1.00D-08 within 128 cycles.
 Requested convergence on MAX density matrix=1.00D-06.
 Requested convergence on             energy=1.00D-06.
 No special actions if energy rises.
 Integral accuracy reduced to 1.0D-05 until final iterations.
 Initial convergence to 1.0D-05 achieved.  Increase integral accuracy.
 SCF Done:  E(RB3LYP) =  -312.952115281     A.U. after   16 cycles
            NFock= 16  Conv=0.16D-08     -V/T= 2.0094

 **********************************************************************

            Population analysis using the SCF Density.

 **********************************************************************

 Orbital symmetries:
       Occupied  (A) (A) (A) (A) (A) (A) (A) (A) (A) (A) (A) (A)
                 (A) (A) (A) (A)
       Virtual   (A) (A) (A) (A) (A) (A) (A) (A) (A) (A) (A) (A)
                 (A) (A) (A) (A) (A) (A) (A) (A) (A) (A) (A) (A)
                 (A) (A) (A) (A) (A) (A) (A) (A) (A) (A) (A) (A)
                 (A) (A) (A) (A) (A) (A) (A) (A)
 The electronic state is 1-A.
 Alpha  occ. eigenvalues --  -24.82688 -24.73752 -19.21434 -10.47568  -1.34337
 Alpha  occ. eigenvalues --   -1.19385  -1.06367  -0.70338  -0.59150  -0.56893
 Alpha  occ. eigenvalues --   -0.54487  -0.46438  -0.44628  -0.42974  -0.38117
 Alpha  occ. eigenvalues --   -0.34031
 Alpha virt. eigenvalues --   -0.08801  -0.02142   0.18152   0.28236   0.46741
 Alpha virt. eigenvalues --    0.47551   0.49827   0.54628   0.83580   0.92999
 Alpha virt. eigenvalues --    0.93513   1.03960   1.07684   1.11775   1.21798
 Alpha virt. eigenvalues --    1.25605   1.25985   1.33031   1.35502   1.38784
 Alpha virt. eigenvalues --    1.52048   1.60272   1.72264   1.74815   1.76554
 Alpha virt. eigenvalues --    1.77857   1.81413   1.82945   1.83551   1.89010
 Alpha virt. eigenvalues --    1.94111   1.96206   2.10004   2.34276   2.53247
 Alpha virt. eigenvalues --    2.55039   2.65316   2.81241   2.95683   3.01263
 Alpha virt. eigenvalues --    3.68214   4.00246   4.18224   4.56738
     Molecular Orbital Coefficients:
                           1         2         3         4         5
                           O         O         O         O         O
     Eigenvalues --   -24.82688 -24.73752 -19.21434 -10.47568  -1.34337
   1 1   F  1S          0.99297   0.00006   0.00001   0.00005  -0.21650
   2        2S          0.01948   0.00028   0.00009   0.00083   0.49304
   3        2PX         0.00071   0.00002   0.00003   0.00009   0.09281
   4        2PY         0.00045   0.00004  -0.00003   0.00007   0.06376
   5        2PZ         0.00008   0.00000   0.00001   0.00002   0.00902
   6        3S          0.01574  -0.00088  -0.00024  -0.00296   0.43154
   7        3PX        -0.00032  -0.00012  -0.00008  -0.00189   0.04360
   8        3PY        -0.00021  -0.00029   0.00019  -0.00136   0.02912
   9        3PZ        -0.00002  -0.00003  -0.00003  -0.00022   0.00419
  10        4XX        -0.00841   0.00017   0.00012  -0.00030   0.02313
  11        4YY        -0.00824   0.00010  -0.00003   0.00029   0.01440
  12        4ZZ        -0.00808   0.00026   0.00008   0.00073   0.00973
  13        4XY        -0.00027  -0.00009  -0.00000  -0.00076   0.01099
  14        4XZ        -0.00003  -0.00001   0.00001  -0.00013   0.00164
  15        4YZ        -0.00003  -0.00003   0.00001  -0.00008   0.00113
  16 2   C  1S          0.00001   0.00003   0.00003   0.99308  -0.07494
  17        2S          0.00046  -0.00023   0.00064   0.04555   0.14548
  18        2PX        -0.00060   0.00019   0.00004  -0.00108  -0.09692
  19        2PY        -0.00037  -0.00009   0.00016  -0.00146  -0.06769
  20        2PZ        -0.00007  -0.00003  -0.00001  -0.00013  -0.00974
  21        3S         -0.00056  -0.00028  -0.00268  -0.00437   0.02637
  22        3PX         0.00079  -0.00070  -0.00002  -0.00099   0.00828
  23        3PY         0.00062   0.00035  -0.00198  -0.00019   0.00020
  24        3PZ         0.00003   0.00001   0.00016  -0.00003   0.00231
  25        4XX         0.00025   0.00074   0.00001  -0.00796   0.00798
  26        4YY         0.00016   0.00025  -0.00051  -0.00811  -0.00233
  27        4ZZ        -0.00005   0.00012   0.00003  -0.00925  -0.01550
  28        4XY         0.00018  -0.00021  -0.00003   0.00069   0.02216
  29        4XZ         0.00002  -0.00003  -0.00000   0.00008   0.00253
  30        4YZ         0.00001   0.00001   0.00005   0.00004   0.00188
  31 3   O  1S          0.00002   0.00003   0.99286  -0.00016  -0.01595
  32        2S          0.00016   0.00020   0.02579  -0.00014   0.03526
  33        2PX         0.00001   0.00000  -0.00003  -0.00005  -0.00549
  34        2PY        -0.00001  -0.00003  -0.00107  -0.00002  -0.02165
  35        2PZ         0.00000   0.00000   0.00010  -0.00000   0.00081
  36        3S         -0.00060  -0.00069   0.01186   0.00053   0.02989
  37        3PX        -0.00012   0.00010   0.00003   0.00024  -0.00592
  38        3PY         0.00024   0.00030  -0.00104   0.00054  -0.01285
  39        3PZ        -0.00003  -0.00003   0.00007  -0.00005  -0.00026
  40        4XX         0.00006   0.00006  -0.00783  -0.00013  -0.00123
  41        4YY        -0.00004  -0.00000  -0.00755  -0.00015   0.00598
  42        4ZZ         0.00011   0.00017  -0.00785  -0.00006  -0.00043
  43        4XY        -0.00004  -0.00001  -0.00001   0.00003   0.00298
  44        4XZ        -0.00001   0.00001   0.00000  -0.00001  -0.00033
  45        4YZ         0.00001   0.00001  -0.00002   0.00003  -0.00012
  46 4   F  1S          0.00002   0.99304   0.00001  -0.00008  -0.01847
  47        2S          0.00020   0.01955   0.00008  -0.00022   0.04029
  48        2PX        -0.00003  -0.00055  -0.00002  -0.00010  -0.01159
  49        2PY         0.00002   0.00014  -0.00002   0.00001   0.00220
  50        2PZ         0.00000   0.00004   0.00000   0.00001   0.00046
  51        3S         -0.00063   0.01508  -0.00012   0.00136   0.03585
  52        3PX         0.00009   0.00009   0.00008   0.00051  -0.01213
  53        3PY        -0.00014  -0.00001   0.00012  -0.00006   0.00049
  54        3PZ        -0.00002  -0.00000  -0.00002  -0.00002  -0.00014
  55        4XX         0.00011  -0.00817   0.00002  -0.00082   0.00710
  56        4YY         0.00015  -0.00797  -0.00001  -0.00018  -0.00026
  57        4ZZ         0.00017  -0.00795   0.00009  -0.00007  -0.00032
  58        4XY         0.00002   0.00010   0.00002   0.00029  -0.00173
  59        4XZ         0.00000   0.00002   0.00001   0.00006  -0.00031
  60        4YZ        -0.00001  -0.00001   0.00001  -0.00002   0.00005
                           6         7         8         9        10
                           O         O         O         O         O
     Eigenvalues --    -1.19385  -1.06367  -0.70338  -0.59150  -0.56893
   1 1   F  1S          0.03355   0.03423   0.08421   0.01274  -0.00041
   2        2S         -0.07685  -0.07830  -0.17605  -0.02020   0.00003
   3        2PX        -0.00019   0.00175   0.40743  -0.03557  -0.04022
   4        2PY        -0.00522   0.02582   0.24654   0.38243  -0.04410
   5        2PZ        -0.00123  -0.00115   0.04009   0.03519   0.56149
   6        3S         -0.07472  -0.08105  -0.30215  -0.05690   0.00179
   7        3PX         0.00489   0.00533   0.22873  -0.03543  -0.02480
   8        3PY        -0.00062   0.02143   0.13511   0.23228  -0.02646
   9        3PZ        -0.00095  -0.00082   0.02237   0.02218   0.36036
  10        4XX         0.00126  -0.00067   0.02233  -0.01001  -0.00272
  11        4YY        -0.00185   0.00308   0.00590   0.01740  -0.00191
  12        4ZZ        -0.00206  -0.00169  -0.00069   0.00182   0.00378
  13        4XY         0.00088   0.00502   0.01504   0.00893  -0.00219
  14        4XZ        -0.00005  -0.00014   0.00278   0.00077   0.02356
  15        4YZ        -0.00008   0.00036   0.00158   0.00234   0.01541
  16 2   C  1S         -0.04317  -0.08719  -0.11952   0.04850  -0.00632
  17        2S          0.08942   0.19035   0.29080  -0.11611   0.01544
  18        2PX         0.08513  -0.00241  -0.11835  -0.31855   0.00477
  19        2PY         0.00717   0.21395  -0.18253   0.06949  -0.00388
  20        2PZ        -0.00432  -0.01220  -0.00527   0.00292   0.27175
  21        3S          0.02809   0.03359   0.16392  -0.10016   0.00733
  22        3PX        -0.00018  -0.00023   0.00898  -0.07012  -0.00738
  23        3PY        -0.00799  -0.01158  -0.01724   0.06577  -0.01267
  24        3PZ         0.00109   0.00275   0.00441   0.00056   0.13298
  25        4XX         0.00149  -0.02452   0.00389   0.01161   0.00055
  26        4YY        -0.00206   0.02247  -0.01160  -0.00503   0.00126
  27        4ZZ        -0.00666  -0.01332  -0.01356   0.00066  -0.00378
  28        4XY        -0.01208  -0.00378   0.01523   0.00924   0.00110
  29        4XZ        -0.00150  -0.00018   0.00147   0.00254  -0.01778
  30        4YZ        -0.00041  -0.00430   0.00224  -0.00085  -0.00927
  31 3   O  1S         -0.02907  -0.19540   0.05563  -0.01383  -0.00297
  32        2S          0.06306   0.43544  -0.12414   0.03615   0.00292
  33        2PX         0.00836  -0.00265  -0.02081  -0.12739   0.00459
  34        2PY        -0.02994  -0.15071  -0.05267   0.03599   0.01692
  35        2PZ         0.00175   0.01192   0.00106  -0.00061   0.12280
  36        3S          0.05876   0.40416  -0.16409   0.01608   0.02720
  37        3PX         0.00603  -0.00272  -0.01613  -0.07252   0.00582
  38        3PY        -0.01318  -0.05738  -0.02894   0.02757   0.00153
  39        3PZ         0.00049   0.00422  -0.00036  -0.00243   0.05677
  40        4XX        -0.00150  -0.00934   0.00098   0.00276  -0.00140
  41        4YY         0.00389   0.01083   0.01094  -0.00222  -0.00286
  42        4ZZ        -0.00135  -0.00524   0.00136   0.00103  -0.00001
  43        4XY        -0.00247   0.00036   0.00413   0.01269  -0.00069
  44        4XZ         0.00015  -0.00002  -0.00044  -0.00096  -0.00098
  45        4YZ        -0.00040  -0.00182  -0.00014   0.00007  -0.01086
  46 4   F  1S         -0.22379   0.05226   0.03148  -0.05412   0.00018
  47        2S          0.49906  -0.11660  -0.06366   0.10216  -0.00334
  48        2PX        -0.05847  -0.00419  -0.11084   0.32912   0.00186
  49        2PY         0.02081   0.01355   0.01244  -0.13310   0.00008
  50        2PZ         0.00399  -0.00042   0.00634  -0.02265   0.10225
  51        3S          0.48909  -0.12599  -0.11489   0.21997   0.00675
  52        3PX        -0.04069  -0.00254  -0.06962   0.19729  -0.00060
  53        3PY         0.01384   0.01044   0.00272  -0.08205   0.00345
  54        3PZ         0.00276  -0.00065   0.00305  -0.01352   0.06071
  55        4XX         0.02308   0.00013   0.01516  -0.02379  -0.00159
  56        4YY         0.00653   0.00003   0.00046  -0.00838  -0.00100
  57        4ZZ         0.00567  -0.00118   0.00140  -0.00512  -0.00091
  58        4XY        -0.00714  -0.00245  -0.00202   0.00776  -0.00048
  59        4XZ        -0.00153   0.00007  -0.00076   0.00157  -0.00550
  60        4YZ         0.00054   0.00011   0.00002  -0.00069   0.00114
                          11        12        13        14        15
                           O         O         O         O         O
     Eigenvalues --    -0.54487  -0.46438  -0.44628  -0.42974  -0.38117
   1 1   F  1S          0.00593   0.00002  -0.00071  -0.00842  -0.00041
   2        2S         -0.00541   0.00659  -0.00323   0.00040   0.00124
   3        2PX         0.35156  -0.20652   0.01263   0.10025   0.00901
   4        2PY        -0.25860   0.33414   0.01048   0.06719   0.02165
   5        2PZ         0.01263   0.01138  -0.27359  -0.00522  -0.18964
   6        3S         -0.03654  -0.01755   0.01512   0.10830   0.00231
   7        3PX         0.21398  -0.14349   0.01061   0.08169   0.00891
   8        3PY        -0.17016   0.21477   0.01228   0.04730   0.01056
   9        3PZ         0.00721   0.00705  -0.20139  -0.00071  -0.13580
  10        4XX         0.01748  -0.00528  -0.00154  -0.00704   0.00055
  11        4YY        -0.01047   0.00939  -0.00100  -0.01140  -0.00028
  12        4ZZ         0.00139   0.00264  -0.00346  -0.00794  -0.00018
  13        4XY        -0.00553   0.00165   0.00078   0.00185  -0.00018
  14        4XZ         0.00125  -0.00047  -0.00609   0.00018  -0.00207
  15        4YZ        -0.00115   0.00073  -0.00450  -0.00037   0.00142
  16 2   C  1S          0.06149   0.02974  -0.00421   0.01582  -0.00413
  17        2S         -0.16052  -0.08605   0.00906  -0.03955   0.00615
  18        2PX        -0.08595   0.08415  -0.00183   0.01624  -0.00041
  19        2PY        -0.21211  -0.24246  -0.00292  -0.05732  -0.00832
  20        2PZ        -0.00715  -0.00503   0.17362   0.00342   0.23810
  21        3S         -0.14036  -0.00356   0.00877  -0.01905   0.03958
  22        3PX         0.01032  -0.01088   0.01320   0.07153  -0.00250
  23        3PY        -0.09232  -0.00200  -0.00635   0.12804   0.02495
  24        3PZ        -0.00466  -0.00573   0.11186   0.00433   0.08102
  25        4XX        -0.00642   0.03289  -0.00131   0.01690  -0.00003
  26        4YY         0.01946  -0.01863   0.00066  -0.01036   0.00104
  27        4ZZ         0.00309   0.00265  -0.00145   0.00011  -0.00168
  28        4XY         0.01621  -0.01019  -0.00349   0.02461   0.00059
  29        4XZ         0.00051  -0.00008   0.02165   0.00145  -0.00486
  30        4YZ         0.00191  -0.00005   0.00991  -0.00037   0.03458
  31 3   O  1S         -0.09307  -0.05465  -0.00181  -0.00800  -0.00031
  32        2S          0.19497   0.11770   0.00190   0.02782   0.00376
  33        2PX        -0.02101   0.02138  -0.01878   0.14045   0.00708
  34        2PY         0.30525   0.37194   0.02550   0.12469   0.07203
  35        2PZ        -0.03073  -0.04961   0.18771  -0.01125   0.48542
  36        3S          0.39999   0.20968   0.01660  -0.04190  -0.01917
  37        3PX        -0.01572   0.01331  -0.01921   0.09026   0.00615
  38        3PY         0.12783   0.20394   0.01069   0.09460   0.05405
  39        3PZ        -0.01183  -0.03032   0.11051  -0.01333   0.33016
  40        4XX        -0.00688   0.00241  -0.00100   0.00772   0.00176
  41        4YY        -0.02621  -0.02107  -0.00243  -0.00405  -0.00459
  42        4ZZ        -0.00298   0.00140   0.00101   0.00377   0.00573
  43        4XY         0.00353  -0.00390   0.00198  -0.00715  -0.00066
  44        4XZ        -0.00043   0.00047   0.00181   0.00055  -0.00141
  45        4YZ         0.00269   0.00362  -0.01246   0.00125  -0.02875
  46 4   F  1S         -0.01522   0.01337   0.00029  -0.00072  -0.00033
  47        2S          0.03257  -0.02681   0.00078   0.00773   0.00040
  48        2PX         0.11276  -0.32578   0.02220   0.23455  -0.01843
  49        2PY        -0.14741   0.02161  -0.05718   0.57662   0.02527
  50        2PZ        -0.01681   0.02244   0.54078   0.05069  -0.35353
  51        3S          0.04690  -0.03917  -0.00613  -0.01223   0.00247
  52        3PX         0.07683  -0.22309   0.01595   0.16236  -0.01440
  53        3PY        -0.09540   0.01490  -0.04074   0.38426   0.01466
  54        3PZ        -0.01228   0.01669   0.37251   0.03457  -0.25094
  55        4XX        -0.00556   0.01361  -0.00035  -0.00674   0.00085
  56        4YY        -0.00161  -0.00237  -0.00050   0.00987  -0.00032
  57        4ZZ        -0.00003  -0.00081   0.00262   0.00351  -0.00098
  58        4XY         0.00826  -0.00153   0.00200  -0.01077   0.00007
  59        4XZ         0.00117  -0.00149  -0.01696  -0.00090   0.00613
  60        4YZ        -0.00072  -0.00006   0.00576   0.00133   0.00035
                          16        17        18        19        20
                           O         V         V         V         V
     Eigenvalues --    -0.34031  -0.08801  -0.02142   0.18152   0.28236
   1 1   F  1S         -0.00957   0.02364   0.03950   0.07411  -0.03978
   2        2S          0.01764  -0.04968  -0.08831  -0.15703   0.08557
   3        2PX         0.02333  -0.13209  -0.24930  -0.14668   0.19160
   4        2PY         0.14408  -0.03432  -0.03876  -0.27387  -0.07802
   5        2PZ         0.00580  -0.20710   0.10508  -0.01581   0.04320
   6        3S          0.07588  -0.17799  -0.29917  -0.71224   0.47219
   7        3PX         0.02374  -0.13059  -0.24648  -0.27476   0.27316
   8        3PY         0.11113  -0.04723  -0.07008  -0.37541  -0.06434
   9        3PZ         0.00599  -0.17226   0.08466  -0.02216   0.04660
  10        4XX        -0.00447   0.00422   0.01321  -0.01029  -0.01851
  11        4YY        -0.00128  -0.00089  -0.00630   0.02108  -0.00229
  12        4ZZ        -0.00179   0.00824   0.00610   0.01551   0.00830
  13        4XY         0.00394  -0.00250  -0.00270   0.00552   0.00121
  14        4XZ        -0.00031   0.01192  -0.00910  -0.00333  -0.00678
  15        4YZ         0.00043   0.00571  -0.00659   0.00237   0.00037
  16 2   C  1S         -0.00282  -0.08074  -0.12361  -0.05912  -0.04200
  17        2S          0.01148   0.16230   0.26614  -0.00252  -0.00454
  18        2PX         0.07513   0.08396   0.23910  -0.68867   0.23807
  19        2PY         0.00971  -0.13812  -0.28643   0.06885   0.40485
  20        2PZ        -0.00323   0.51948  -0.34236  -0.06155  -0.01770
  21        3S         -0.03624   0.56079   0.87150   1.12342   1.28358
  22        3PX         0.10064   0.00920   0.07814  -0.81568   0.33058
  23        3PY        -0.01200  -0.05519  -0.13977   0.22669   1.81522
  24        3PZ         0.00153   0.34692  -0.26965  -0.10112  -0.09876
  25        4XX        -0.00641  -0.02060  -0.03529   0.00290   0.01957
  26        4YY         0.00233  -0.01436  -0.01193  -0.02445  -0.03117
  27        4ZZ        -0.00036   0.01409   0.01759   0.01603   0.01753
  28        4XY         0.03943  -0.00435  -0.00724  -0.01643   0.01560
  29        4XZ        -0.00068   0.00054   0.00060  -0.00944   0.00295
  30        4YZ         0.00024  -0.02092   0.00999   0.00322   0.00845
  31 3   O  1S         -0.00176   0.01402   0.02233   0.04385   0.10530
  32        2S          0.00622  -0.02959  -0.04635  -0.08823  -0.16246
  33        2PX         0.60576  -0.03016  -0.08623   0.26108  -0.08342
  34        2PY        -0.02638   0.07046   0.14458   0.15298   0.24256
  35        2PZ         0.00442  -0.36603   0.19403   0.01256  -0.03600
  36        3S          0.01383  -0.12109  -0.20153  -0.56460  -1.77843
  37        3PX         0.39502  -0.02493  -0.07994   0.32330  -0.12054
  38        3PY        -0.02139   0.08823   0.18267   0.35272   0.89143
  39        3PZ         0.00340  -0.33357   0.18491   0.00327  -0.08216
  40        4XX        -0.00245   0.00211   0.00255   0.00923   0.03854
  41        4YY         0.00308  -0.00286  -0.00203  -0.00632  -0.00015
  42        4ZZ         0.00105   0.00713   0.00996   0.01551   0.04361
  43        4XY        -0.02547  -0.00118  -0.00453   0.02350  -0.01140
  44        4XZ         0.00243   0.00081   0.00022  -0.00460   0.00217
  45        4YZ        -0.00023  -0.00221   0.00691   0.00404   0.00242
  46 4   F  1S          0.00790   0.02327   0.04761  -0.02903   0.00974
  47        2S         -0.01748  -0.05323  -0.11364   0.06153  -0.00702
  48        2PX         0.11427   0.18995   0.35895  -0.13731  -0.03302
  49        2PY        -0.25021  -0.04036  -0.07587   0.08607  -0.19664
  50        2PZ        -0.00370  -0.15956   0.05985   0.04334   0.00762
  51        3S         -0.05313  -0.13729  -0.28266   0.23096  -0.08830
  52        3PX         0.09699   0.17686   0.33837  -0.13519  -0.00644
  53        3PY        -0.17695  -0.04406  -0.08895   0.07705  -0.22285
  54        3PZ        -0.00501  -0.12564   0.04492   0.03218   0.00792
  55        4XX        -0.00534  -0.00068   0.00544  -0.01549  -0.00143
  56        4YY         0.00240  -0.00105  -0.00500  -0.00622   0.00842
  57        4ZZ         0.00065   0.00390   0.00071   0.00476   0.01409
  58        4XY         0.00544   0.00161   0.00067   0.01440  -0.01438
  59        4XZ         0.00057  -0.00964   0.00666   0.00597   0.00196
  60        4YZ        -0.00055   0.00210  -0.00204  -0.00301   0.00359
                          21        22        23        24        25
                           V         V         V         V         V
     Eigenvalues --     0.46741   0.47551   0.49827   0.54628   0.83580
   1 1   F  1S          0.02197  -0.01093  -0.01248  -0.00205   0.00341
   2        2S         -0.00514   0.00375   0.01025  -0.01842   0.06364
   3        2PX         0.25830  -0.08541  -0.06642  -0.00403  -0.07230
   4        2PY         0.18299  -0.05458   0.11280   0.01142   0.09830
   5        2PZ        -0.01610  -0.10697   0.03625   0.02042  -0.01779
   6        3S         -0.81016   0.33876   0.21732   0.11637  -0.13303
   7        3PX        -0.19519   0.08482  -0.03207  -0.03093   0.00552
   8        3PY        -0.15493   0.08528   0.17829  -0.07944  -0.07057
   9        3PZ        -0.06074  -0.10888   0.02164   0.00674   0.00637
  10        4XX        -0.08573   0.03060  -0.03554   0.01623   0.04624
  11        4YY        -0.01674   0.01128   0.02980  -0.04231   0.00419
  12        4ZZ         0.05832  -0.02871  -0.00033   0.00367   0.01434
  13        4XY        -0.11329   0.04763   0.01699  -0.02223  -0.01579
  14        4XZ        -0.02774  -0.02698  -0.00063   0.00285   0.00590
  15        4YZ        -0.01970  -0.02277   0.00019  -0.00128  -0.00070
  16 2   C  1S          0.03413  -0.00762  -0.02146   0.04220   0.03453
  17        2S         -0.83428   0.15157  -0.39798  -1.08672   0.42043
  18        2PX         0.49329  -0.20139  -0.49724  -0.20501  -0.01819
  19        2PY         0.40837  -0.08408   0.62316  -0.59856   0.25208
  20        2PZ        -0.27929  -0.89385   0.07848   0.03665  -0.02589
  21        3S          1.24184  -0.33181   0.68855   1.75595  -0.03237
  22        3PX        -1.15164   0.51113   1.47422   0.53548  -0.00197
  23        3PY        -0.74742   0.17248  -0.90093   1.04138  -0.08416
  24        3PZ         0.34794   1.27240  -0.14617  -0.10092   0.00243
  25        4XX         0.03776  -0.02407   0.00387  -0.08891  -0.02421
  26        4YY        -0.01620  -0.02108  -0.10093   0.10455   0.25629
  27        4ZZ        -0.04493   0.01719   0.00453  -0.07324  -0.05176
  28        4XY         0.09042  -0.03455  -0.01792  -0.00162  -0.00536
  29        4XZ         0.01000   0.00524   0.00542   0.00167   0.00197
  30        4YZ         0.00651  -0.00797   0.00636  -0.01417  -0.02610
  31 3   O  1S          0.00357  -0.00172   0.01210  -0.00387   0.00767
  32        2S         -0.06403   0.00081  -0.09942   0.04106  -0.53794
  33        2PX         0.06580  -0.03610  -0.15336  -0.04893   0.05718
  34        2PY        -0.00522   0.01447   0.15028  -0.42889  -0.66459
  35        2PZ        -0.01912  -0.11072   0.01652   0.03444   0.03851
  36        3S          0.14943   0.05281   0.30143  -0.85862   0.74417
  37        3PX         0.17864  -0.07903  -0.23643  -0.08619  -0.05828
  38        3PY         0.09195  -0.06148   0.05894   0.27261   1.16272
  39        3PZ        -0.04431  -0.15369   0.02022  -0.01568  -0.07523
  40        4XX        -0.01341  -0.00413  -0.04029   0.04369  -0.20326
  41        4YY        -0.02556   0.02072   0.04324  -0.17349  -0.21274
  42        4ZZ        -0.01286  -0.01124  -0.02550   0.06449  -0.19646
  43        4XY        -0.03316   0.01325   0.02789   0.01239   0.00286
  44        4XZ         0.00042   0.00047   0.00194   0.00050  -0.00030
  45        4YZ         0.01468   0.04576  -0.01235   0.02178   0.00051
  46 4   F  1S         -0.00759   0.00375   0.04087   0.01284   0.00272
  47        2S         -0.06796   0.00798  -0.13108  -0.10841   0.13126
  48        2PX         0.03215  -0.02726  -0.10644  -0.09224   0.04512
  49        2PY         0.06087  -0.01786   0.06679  -0.02267   0.10718
  50        2PZ        -0.02381  -0.12243   0.00652   0.00945  -0.01205
  51        3S          0.25266  -0.09763  -0.64497  -0.15055  -0.22003
  52        3PX         0.02322   0.00440   0.37731   0.15895  -0.04287
  53        3PY         0.10720  -0.03685  -0.12846  -0.17119  -0.05237
  54        3PZ        -0.02486  -0.10517  -0.01844  -0.00520   0.00809
  55        4XX        -0.05753   0.00637  -0.12596  -0.08476   0.08706
  56        4YY        -0.01920   0.00358  -0.00085  -0.04803   0.03229
  57        4ZZ        -0.03216   0.00667   0.02141  -0.00713   0.04524
  58        4XY        -0.00803   0.00421   0.05030   0.06197   0.02583
  59        4XZ         0.00566   0.01184   0.00943   0.00483  -0.00645
  60        4YZ        -0.00254  -0.00685  -0.00191  -0.00250  -0.00113
                          26        27        28        29        30
                           V         V         V         V         V
     Eigenvalues --     0.92999   0.93513   1.03960   1.07684   1.11775
   1 1   F  1S          0.00112  -0.01390  -0.03905   0.00720   0.01338
   2        2S          0.07964  -0.56385  -0.80527   0.13817   0.25616
   3        2PX        -0.06166   0.17270   0.46533   0.04049  -0.00588
   4        2PY        -0.00454   0.22972   0.14115  -0.13623  -0.42914
   5        2PZ         0.19056  -0.02173   0.12095  -0.54765   0.27909
   6        3S         -0.10643   0.81001   1.67579  -0.31921  -0.65033
   7        3PX         0.07904  -0.28379  -0.67702   0.00470   0.12961
   8        3PY         0.02723  -0.35263  -0.26272   0.15422   0.52249
   9        3PZ        -0.12517   0.01316  -0.14133   0.58863  -0.30775
  10        4XX         0.04378  -0.24724  -0.36795   0.06667   0.11983
  11        4YY         0.03857  -0.29425  -0.34920   0.06067   0.10718
  12        4ZZ         0.02266  -0.21542  -0.42723   0.06522   0.14187
  13        4XY        -0.00553  -0.00921   0.02536  -0.01653  -0.04927
  14        4XZ        -0.02744  -0.00038   0.00280   0.02806  -0.01459
  15        4YZ         0.02307   0.01726  -0.01301   0.06566  -0.02806
  16 2   C  1S         -0.00425   0.01121   0.02380   0.00540   0.00394
  17        2S         -0.03863   0.14403   0.41380   0.12664   0.05786
  18        2PX         0.01503  -0.09536  -0.14344   0.11975   0.23832
  19        2PY         0.01782  -0.05601  -0.14521  -0.00400   0.05084
  20        2PZ         0.06571   0.00102  -0.01555  -0.02367   0.02105
  21        3S          0.07746  -0.11554  -0.50909  -0.30078  -0.11640
  22        3PX         0.13359  -0.51940   0.31110  -0.34683  -0.68782
  23        3PY         0.01713  -0.03064   0.09518  -0.03526  -0.03744
  24        3PZ        -0.40502  -0.10196   0.02499  -0.06109   0.00803
  25        4XX        -0.01282   0.06023   0.20112   0.04086  -0.01087
  26        4YY        -0.00867   0.02978   0.06636   0.01533   0.04767
  27        4ZZ         0.00744  -0.01526  -0.11368  -0.04657  -0.04462
  28        4XY        -0.00974   0.04260   0.13349  -0.05814  -0.19887
  29        4XZ        -0.01288  -0.02280   0.07828  -0.22928   0.11510
  30        4YZ         0.01119   0.00415  -0.00724   0.00709  -0.02814
  31 3   O  1S          0.00237  -0.00103  -0.00224  -0.00271   0.00232
  32        2S          0.02892  -0.01752   0.02221  -0.00606   0.10511
  33        2PX         0.19144  -0.74556   0.24209  -0.06872  -0.35596
  34        2PY        -0.04260  -0.05764  -0.03393  -0.03320  -0.06728
  35        2PZ        -0.89150  -0.22134   0.01626  -0.05238   0.00238
  36        3S         -0.10529   0.07133   0.04819   0.10905  -0.15960
  37        3PX        -0.25894   1.01350  -0.42453   0.18125   0.71857
  38        3PY         0.07512   0.07424   0.04267   0.02261   0.15611
  39        3PZ         1.13987   0.28610  -0.02855   0.08681  -0.00418
  40        4XX         0.00601  -0.00154   0.03248   0.01340   0.03454
  41        4YY         0.01548  -0.00985   0.00289   0.01002   0.04751
  42        4ZZ         0.01448  -0.01836  -0.04761  -0.04184  -0.01612
  43        4XY        -0.00536   0.02535  -0.04401   0.00753   0.14636
  44        4XZ         0.00076  -0.01205   0.02488  -0.07794   0.03082
  45        4YZ         0.02277   0.00774  -0.00441   0.00918  -0.00159
  46 4   F  1S         -0.00115   0.00337  -0.03253  -0.04379  -0.03973
  47        2S         -0.07715   0.25780  -0.74039  -0.81947  -0.69776
  48        2PX         0.00606   0.03676  -0.30754  -0.23806  -0.22206
  49        2PY         0.09367  -0.21327   0.00179   0.09689   0.22288
  50        2PZ         0.08366   0.07703  -0.15234   0.47755  -0.29231
  51        3S          0.08067  -0.28255   1.38131   1.71770   1.56757
  52        3PX         0.02237  -0.11054   0.32478   0.22118   0.19861
  53        3PY        -0.10179   0.24168  -0.02992  -0.07024  -0.18695
  54        3PZ        -0.03490  -0.04947   0.14579  -0.48219   0.32001
  55        4XX        -0.02772   0.10780  -0.33567  -0.33133  -0.24556
  56        4YY        -0.04943   0.15729  -0.32115  -0.36579  -0.33320
  57        4ZZ        -0.02752   0.07378  -0.32564  -0.39943  -0.34537
  58        4XY         0.01695  -0.02951  -0.02803  -0.02065  -0.00148
  59        4XZ         0.01832   0.01334  -0.03076   0.06690  -0.05072
  60        4YZ         0.02479   0.00021   0.01768  -0.03946   0.01833
                          31        32        33        34        35
                           V         V         V         V         V
     Eigenvalues --     1.21798   1.25605   1.25985   1.33031   1.35502
   1 1   F  1S         -0.01471  -0.00879  -0.00645  -0.02136  -0.01413
   2        2S         -0.16635  -0.07330   0.04580  -0.27227  -0.18414
   3        2PX        -0.35362   0.30010   0.22859   0.04533   0.00152
   4        2PY         0.30366  -0.31243   0.03688  -0.32904  -0.09920
   5        2PZ        -0.14601  -0.48400   0.16801   0.30166  -0.15040
   6        3S          0.41019   0.23726   0.07189   0.65580   0.44101
   7        3PX         0.57286  -0.40653  -0.29638  -0.01152   0.03057
   8        3PY        -0.31752   0.46639  -0.07216   0.59423   0.21046
   9        3PZ         0.20163   0.69136  -0.23842  -0.50549   0.33560
  10        4XX        -0.19542   0.01790   0.04730  -0.11896   0.00085
  11        4YY         0.15448  -0.04354   0.04059  -0.00359  -0.03836
  12        4ZZ        -0.16374  -0.09323  -0.11198  -0.22388  -0.19133
  13        4XY        -0.00205  -0.01735   0.04556  -0.10684  -0.05590
  14        4XZ         0.00194  -0.00312  -0.03469   0.17812  -0.35400
  15        4YZ        -0.02494  -0.07122   0.02243   0.09136  -0.16822
  16 2   C  1S         -0.01044  -0.00460   0.00324  -0.00205  -0.00157
  17        2S          0.04841  -0.07528   0.03953   0.01194  -0.00369
  18        2PX         0.12410  -0.12168  -0.06786  -0.06653  -0.00840
  19        2PY        -0.14732   0.02955  -0.10193   0.02883   0.03938
  20        2PZ         0.05781   0.12806  -0.06423  -0.06428   0.01597
  21        3S         -1.85402  -0.31715  -0.47582  -1.52846  -0.43747
  22        3PX        -0.38911   0.36928   0.09409   0.13093   0.08706
  23        3PY        -0.65945  -0.37967   0.00978  -1.02858  -0.24489
  24        3PZ        -0.09224  -0.53855   0.31074   0.43710  -0.01395
  25        4XX         0.20507  -0.00444   0.07527   0.12561  -0.02998
  26        4YY        -0.17237  -0.01248  -0.03154  -0.01165   0.08536
  27        4ZZ        -0.11833  -0.03835  -0.03657  -0.24179  -0.10180
  28        4XY        -0.12573   0.03186   0.01390  -0.07032  -0.12207
  29        4XZ         0.05084   0.09636  -0.00360  -0.09979   0.29056
  30        4YZ        -0.04600  -0.18258   0.17802  -0.12062   0.45676
  31 3   O  1S         -0.06317  -0.01475  -0.01774  -0.04944  -0.01056
  32        2S         -1.00203  -0.21206  -0.37131  -0.62274  -0.12333
  33        2PX        -0.01408   0.00610  -0.10113   0.06822   0.05690
  34        2PY         0.19840   0.03151   0.12506   0.07522   0.01270
  35        2PZ        -0.04323  -0.12839   0.05690   0.05053  -0.07818
  36        3S          2.89263   0.68970   0.86693   2.25019   0.49067
  37        3PX         0.15425  -0.09792   0.12801  -0.10609  -0.05358
  38        3PY        -1.10765  -0.18727  -0.42942  -0.68801  -0.14524
  39        3PZ         0.17795   0.40178  -0.20770  -0.07140  -0.05708
  40        4XX        -0.17764  -0.01587  -0.09915   0.00854   0.01775
  41        4YY        -0.35969  -0.05610  -0.17704  -0.19313  -0.07169
  42        4ZZ        -0.30671  -0.11729  -0.01650  -0.37079  -0.06042
  43        4XY         0.04754  -0.00219   0.04737   0.00304   0.06633
  44        4XZ         0.00675   0.02687  -0.00590  -0.03523   0.08181
  45        4YZ         0.03738   0.15335  -0.11598   0.02122  -0.30889
  46 4   F  1S         -0.02844   0.01288   0.00094  -0.01152  -0.00410
  47        2S         -0.42357   0.10377  -0.04785  -0.31976  -0.11680
  48        2PX        -0.06513   0.37131   0.37219   0.29028   0.05881
  49        2PY         0.03528   0.05516   0.63121  -0.39620  -0.25288
  50        2PZ        -0.24414  -0.37342   0.24311   0.27151   0.07287
  51        3S          1.09501  -0.36936   0.09881   0.61041   0.21001
  52        3PX        -0.00758  -0.40519  -0.46308  -0.36752  -0.07003
  53        3PY         0.04486  -0.05901  -0.77649   0.59356   0.35102
  54        3PZ         0.30146   0.49418  -0.32186  -0.38797  -0.09824
  55        4XX        -0.13350  -0.03576  -0.06654  -0.14077   0.00422
  56        4YY        -0.10595   0.11388   0.07269  -0.05433  -0.09111
  57        4ZZ        -0.30921   0.10299  -0.03167  -0.15235  -0.04287
  58        4XY        -0.05740   0.02383  -0.06839   0.08124   0.11573
  59        4XZ        -0.02688  -0.01358   0.00186  -0.05952  -0.03551
  60        4YZ        -0.00251  -0.01266   0.01468  -0.01337   0.08609
                          36        37        38        39        40
                           V         V         V         V         V
     Eigenvalues --     1.38784   1.52048   1.60272   1.72264   1.74815
   1 1   F  1S         -0.00135  -0.00081  -0.00028   0.01716  -0.00101
   2        2S         -0.03736  -0.30714   0.47683   0.34642  -0.06901
   3        2PX        -0.00440  -0.12490   0.35234   0.18008  -0.00227
   4        2PY        -0.04654  -0.25936   0.15249  -0.16315  -0.02942
   5        2PZ         0.01958   0.02681   0.02825   0.04252  -0.01103
   6        3S          0.07017   0.48465  -0.72010  -0.83510   0.14511
   7        3PX        -0.00067   0.05081  -0.41520  -0.38421  -0.00567
   8        3PY         0.08695   0.50518  -0.01015   0.29591   0.06474
   9        3PZ        -0.06712  -0.05221  -0.03805  -0.07861   0.01867
  10        4XX         0.05123   0.19274   0.40659  -0.24524   0.12117
  11        4YY        -0.07006  -0.41172   0.09081  -0.06943   0.01837
  12        4ZZ        -0.01928  -0.03130  -0.08368   0.65005  -0.18856
  13        4XY        -0.05197  -0.14515  -0.05357   0.48279  -0.15695
  14        4XZ         0.00379   0.03184   0.12390  -0.19562  -0.49621
  15        4YZ         0.24212  -0.11251  -0.04141   0.08077   0.74530
  16 2   C  1S         -0.00187  -0.02395   0.00323   0.02828  -0.00349
  17        2S          0.00364   0.18607   0.00016   0.03241  -0.03890
  18        2PX        -0.04075   0.03142   0.06020  -0.01559  -0.02334
  19        2PY         0.02571  -0.01096   0.10087  -0.06966   0.01736
  20        2PZ        -0.04279  -0.00304   0.00652   0.02022   0.02785
  21        3S         -0.19476  -1.58246  -0.38002  -1.06165   0.06902
  22        3PX        -0.03335  -0.00029   0.16829  -0.04591   0.19295
  23        3PY        -0.07426  -1.09121  -0.67081  -1.47546  -0.07029
  24        3PZ        -0.04405   0.13359   0.02149   0.08367  -0.01198
  25        4XX        -0.02696  -0.18973  -0.20782   0.18742   0.02969
  26        4YY         0.05509  -0.00142   0.12120  -0.37111  -0.00411
  27        4ZZ        -0.06312   0.12548   0.15913   0.26377  -0.01342
  28        4XY         0.03574   0.33100  -0.26581   0.01759  -0.01008
  29        4XZ        -0.48575   0.04385  -0.05624  -0.01143   0.02283
  30        4YZ         0.31924   0.03292  -0.03935   0.06811  -0.02651
  31 3   O  1S         -0.00320  -0.04426  -0.01204  -0.04202   0.00078
  32        2S         -0.06481  -0.86861  -0.56982  -0.51363  -0.03591
  33        2PX         0.00074  -0.07639   0.06355  -0.00081   0.00240
  34        2PY         0.02173   0.20874   0.25577  -0.16339   0.01648
  35        2PZ        -0.04062  -0.02487  -0.01532  -0.00221   0.04790
  36        3S          0.20049   2.62079   1.36262   2.22037   0.06758
  37        3PX        -0.01697   0.00848  -0.05638   0.00654  -0.04437
  38        3PY        -0.07493  -0.92185  -0.53571  -0.60982  -0.02976
  39        3PZ        -0.04565   0.06396   0.05607   0.07272  -0.05056
  40        4XX         0.00948  -0.21552  -0.37321  -0.03707  -0.07797
  41        4YY        -0.04162  -0.27871  -0.20664  -0.24944   0.00910
  42        4ZZ        -0.01714  -0.11635   0.24418   0.00536   0.06193
  43        4XY        -0.06233  -0.26744   0.25462  -0.07214  -0.04113
  44        4XZ        -0.16335   0.08888  -0.10082  -0.05295   0.04612
  45        4YZ        -0.21218  -0.01901   0.09981   0.00488   0.20855
  46 4   F  1S         -0.00880  -0.02403   0.02179   0.01673   0.00891
  47        2S         -0.14199   0.24083   0.28589   0.06762   0.20922
  48        2PX         0.06844  -0.32410  -0.13518  -0.01919  -0.06262
  49        2PY        -0.05208   0.06815  -0.08921  -0.10988   0.01317
  50        2PZ        -0.39907   0.05034   0.00359   0.01292  -0.00750
  51        3S          0.30710  -0.15074  -0.68293  -0.25755  -0.45804
  52        3PX        -0.10830   0.28369   0.28572   0.12034   0.14154
  53        3PY         0.08433   0.05335   0.16375   0.27519  -0.04318
  54        3PZ         0.56496  -0.07137  -0.00939  -0.03066  -0.00312
  55        4XX        -0.04257  -0.07176   0.42231   0.23256   0.09099
  56        4YY        -0.02816   0.25495  -0.15275  -0.03496   0.05495
  57        4ZZ        -0.10639  -0.12348   0.09684  -0.02116   0.04989
  58        4XY         0.01896  -0.03100   0.23890   0.05914  -0.03927
  59        4XZ         0.36869  -0.02002   0.00990  -0.04444  -0.25015
  60        4YZ        -0.12897   0.00109  -0.09536  -0.06376   0.06920
                          41        42        43        44        45
                           V         V         V         V         V
     Eigenvalues --     1.76554   1.77857   1.81413   1.82945   1.83551
   1 1   F  1S         -0.00156  -0.00964  -0.03739  -0.00288  -0.03532
   2        2S          0.01662   0.01415  -0.89256   0.04795  -0.41943
   3        2PX        -0.07265  -0.05845  -0.05123   0.02010  -0.01702
   4        2PY         0.12603   0.15364  -0.17546   0.01639   0.09879
   5        2PZ         0.04505  -0.00559   0.00206  -0.01916  -0.00315
   6        3S         -0.02867   0.05219   2.08794  -0.05377   1.23299
   7        3PX         0.19447   0.23218   0.32842  -0.03506   0.25390
   8        3PY        -0.22752  -0.26348   0.47543  -0.01689   0.05927
   9        3PZ        -0.06095  -0.00052   0.01366   0.03044   0.01945
  10        4XX         0.07599  -0.08648  -0.57327   0.04461  -0.00792
  11        4YY        -0.15923  -0.13271   0.02017  -0.13225  -0.61188
  12        4ZZ         0.09522   0.17324  -0.19764   0.09110   0.17795
  13        4XY         0.04948   0.11688  -0.21740   0.03352  -0.09254
  14        4XZ        -0.18269   0.05060   0.03337   0.06791  -0.01244
  15        4YZ        -0.08147   0.18478  -0.05204   0.05330   0.07397
  16 2   C  1S         -0.00178   0.00094   0.02587  -0.00150   0.00985
  17        2S          0.22963   0.33939   0.24846  -0.03211   0.20038
  18        2PX         0.08945   0.15162  -0.00433  -0.00777   0.05118
  19        2PY        -0.01580  -0.03129  -0.10732   0.03620   0.04797
  20        2PZ         0.03559  -0.03261  -0.02099  -0.00697  -0.01961
  21        3S         -0.42032  -0.75432  -1.49425   0.06063  -1.05671
  22        3PX        -0.63807  -0.85733   0.56301   0.06030   0.32769
  23        3PY         0.44857   0.54642  -0.07319  -0.03909   0.04831
  24        3PZ         0.02312   0.06462   0.11719  -0.01103   0.07892
  25        4XX        -0.20478  -0.27733   0.01498   0.01444  -0.11404
  26        4YY         0.09838   0.11783  -0.18042   0.01909   0.00943
  27        4ZZ         0.03411   0.05951   0.19852  -0.02762   0.12347
  28        4XY         0.04759   0.05321  -0.08555  -0.01738  -0.12276
  29        4XZ         0.04127   0.02631  -0.02671   0.01460  -0.02245
  30        4YZ        -0.05081  -0.01904   0.02995   0.00322  -0.01112
  31 3   O  1S          0.00550   0.00473  -0.02316   0.00327  -0.00043
  32        2S          0.01294  -0.02968  -0.10616  -0.05235  -0.31592
  33        2PX        -0.01081  -0.02812   0.01426   0.02255   0.10101
  34        2PY         0.07946   0.10142  -0.14493   0.03779   0.10250
  35        2PZ         0.00849   0.01572   0.01122   0.03385   0.00554
  36        3S         -0.22137  -0.12498   0.79383   0.05108   0.70143
  37        3PX         0.14819   0.21393  -0.13695  -0.04059  -0.19470
  38        3PY         0.00544  -0.04932  -0.21412  -0.03663  -0.31469
  39        3PZ        -0.02740  -0.04803  -0.00651  -0.04559  -0.00830
  40        4XX        -0.03159  -0.19753  -0.58922   0.04300   0.23449
  41        4YY         0.05506   0.04423  -0.06189  -0.01129  -0.11115
  42        4ZZ        -0.02438   0.12980   0.55436  -0.03311  -0.21483
  43        4XY         0.00038   0.07917  -0.11644   0.05880   0.35649
  44        4XZ        -0.74387   0.50890  -0.10604  -0.17994   0.06910
  45        4YZ         0.04056   0.03266  -0.00799   0.08261  -0.00814
  46 4   F  1S         -0.05099  -0.06439  -0.00200   0.00523  -0.01000
  47        2S         -0.63238  -0.93828  -0.18509   0.05756  -0.12418
  48        2PX         0.09961   0.17502   0.07527  -0.00483   0.02420
  49        2PY        -0.01245  -0.03670  -0.03250   0.00127  -0.00213
  50        2PZ        -0.03514  -0.00288   0.01371  -0.01222   0.01033
  51        3S          1.62002   2.30009   0.31165  -0.15471   0.30031
  52        3PX        -0.40304  -0.60156  -0.16376   0.03413  -0.10785
  53        3PY         0.09936   0.17140   0.04129  -0.01096   0.00283
  54        3PZ         0.05681   0.02938  -0.03185   0.01498  -0.01998
  55        4XX        -0.52936  -0.57688  -0.20241   0.09913  -0.30330
  56        4YY        -0.03481  -0.13828  -0.17273   0.06987  -0.38766
  57        4ZZ        -0.20298  -0.33308   0.24611  -0.09627   0.54199
  58        4XY         0.21756   0.47653  -0.11257   0.06442  -0.31858
  59        4XZ        -0.27590   0.09147   0.04269   0.24506   0.02940
  60        4YZ        -0.07437   0.02416   0.11654   0.92017   0.00165
                          46        47        48        49        50
                           V         V         V         V         V
     Eigenvalues --     1.89010   1.94111   1.96206   2.10004   2.34276
   1 1   F  1S         -0.05144  -0.04866  -0.03943  -0.01077  -0.00169
   2        2S         -0.78028  -0.82379  -0.38791   0.07265   0.11975
   3        2PX         0.00692  -0.00644   0.12324   0.15294  -0.01121
   4        2PY         0.02148   0.03297   0.01931   0.01660   0.07631
   5        2PZ        -0.05533  -0.03191   0.12154  -0.10944   0.07888
   6        3S          2.17070   2.23464   1.28856   0.04867  -0.23650
   7        3PX         0.27387   0.36796   0.08804  -0.17197   0.05979
   8        3PY         0.17937   0.15452   0.23916   0.11200  -0.20422
   9        3PZ         0.13099   0.09404  -0.21580   0.26457  -0.23163
  10        4XX        -0.32937  -0.52338  -0.22887  -0.12021   0.18120
  11        4YY        -0.60837  -0.15522   0.05487   0.23834  -0.09739
  12        4ZZ         0.18374  -0.04707  -0.23823  -0.10985  -0.05341
  13        4XY        -0.12526  -0.13725  -0.18837  -0.13748  -0.09848
  14        4XZ         0.04827   0.01947  -0.34472   0.37359  -0.19807
  15        4YZ         0.00352   0.02443  -0.15198   0.19113  -0.42469
  16 2   C  1S          0.00428  -0.00598   0.03557   0.02421   0.04259
  17        2S         -0.18583   0.11219   0.22095   0.11193   0.00993
  18        2PX        -0.17240  -0.05955   0.06416   0.11520  -0.20385
  19        2PY         0.06676   0.02774  -0.11318  -0.09533   0.08648
  20        2PZ        -0.03680  -0.02718   0.14992  -0.17326   0.15554
  21        3S          0.30864  -0.16959  -1.00291  -0.26678  -0.24426
  22        3PX         1.35613   0.88562   0.61562   0.30941  -0.47839
  23        3PY         0.86700   1.16410  -0.08171  -0.36257   0.18239
  24        3PZ        -0.06908  -0.00301   0.39106  -0.34987   0.15921
  25        4XX         0.03635  -0.26366  -0.15351  -0.12020   0.06957
  26        4YY         0.18927   0.25874  -0.23820  -0.32065  -0.05811
  27        4ZZ        -0.16181   0.02793   0.54437   0.60992   0.17538
  28        4XY        -0.31192  -0.19931  -0.15104  -0.03023  -0.02339
  29        4XZ        -0.05789  -0.02928  -0.01394  -0.08759  -0.65094
  30        4YZ        -0.02321  -0.04146  -0.03488   0.09501   0.37508
  31 3   O  1S          0.01625   0.02517  -0.01948  -0.01146  -0.00136
  32        2S          0.23781   0.05825  -0.01330   0.07320   0.13136
  33        2PX         0.20987  -0.03632   0.08734   0.04021  -0.03045
  34        2PY         0.06630   0.18066  -0.15845  -0.20809  -0.08229
  35        2PZ        -0.01302   0.00666   0.09224  -0.06083   0.04134
  36        3S         -1.04929  -0.90407   0.53588   0.29743  -0.20036
  37        3PX        -0.54346  -0.10234  -0.24870  -0.14547   0.18116
  38        3PY         0.27742   0.14134  -0.13373   0.01854   0.10281
  39        3PZ        -0.00852  -0.05658  -0.19864   0.24033  -0.23554
  40        4XX        -0.14154   0.31853   0.21142   0.26107   0.05527
  41        4YY         0.09459  -0.00176   0.00336  -0.09792   0.00693
  42        4ZZ         0.14540  -0.24290  -0.25740  -0.11505  -0.02512
  43        4XY         0.21524  -0.37065   0.16233   0.19037  -0.15117
  44        4XZ         0.03433  -0.02664  -0.01937   0.02521   0.24004
  45        4YZ        -0.05989  -0.01764   0.29812  -0.39057   0.49967
  46 4   F  1S          0.04800  -0.00239  -0.00317   0.00284  -0.00024
  47        2S          0.36915   0.23058   0.10519   0.25808  -0.44250
  48        2PX         0.07283   0.00688  -0.04272  -0.11203   0.12203
  49        2PY         0.04951   0.26752   0.02013   0.00155  -0.03901
  50        2PZ        -0.00213  -0.00143   0.11614  -0.10052  -0.08440
  51        3S         -1.22136  -0.43311  -0.19854  -0.52437   0.87825
  52        3PX         0.08776  -0.03864   0.04856   0.23815  -0.33949
  53        3PY        -0.28831  -0.52497  -0.03853   0.00038   0.11887
  54        3PZ        -0.01178  -0.00189  -0.21911   0.20002   0.16811
  55        4XX         0.37424   0.41511  -0.08081  -0.15787   0.03846
  56        4YY         0.56277  -0.41526   0.31688   0.29451  -0.12669
  57        4ZZ        -0.38444   0.11326  -0.20120   0.01743  -0.08060
  58        4XY        -0.12231   0.43667   0.05924   0.09784  -0.05607
  59        4XZ        -0.17519  -0.07896   0.48943  -0.45760  -0.44556
  60        4YZ        -0.07580   0.00361  -0.13297   0.14592   0.17368
                          51        52        53        54        55
                           V         V         V         V         V
     Eigenvalues --     2.53247   2.55039   2.65316   2.81241   2.95683
   1 1   F  1S          0.01618  -0.01059  -0.04547   0.01407   0.01786
   2        2S         -0.04359   0.39426   0.69467  -0.08349  -0.87326
   3        2PX        -0.14439   0.04710   0.20333  -0.07311  -0.07830
   4        2PY         0.07580   0.13810   0.10246  -0.05409  -0.08130
   5        2PZ        -0.05574   0.04962   0.00279  -0.00160  -0.00030
   6        3S         -0.11967  -0.74401  -1.10922   0.02462   1.80899
   7        3PX         0.24252  -0.07639  -0.51031  -0.09576   0.97171
   8        3PY        -0.42144  -0.40555  -0.20131  -0.02504   0.85745
   9        3PZ         0.20688  -0.18727   0.06300  -0.03563   0.07659
  10        4XX         0.35366   0.19942  -0.36940  -0.05222   0.36944
  11        4YY        -0.33617  -0.16071   0.02734  -0.03404   0.33558
  12        4ZZ         0.04249  -0.01973   0.10473   0.08755  -0.36829
  13        4XY        -0.31270  -0.21534  -0.10479  -0.23080   0.86604
  14        4XZ         0.40316  -0.36295   0.22002  -0.04412   0.08963
  15        4YZ         0.23022  -0.14567   0.16034  -0.02563   0.10586
  16 2   C  1S          0.08082   0.06324   0.02177   0.02396   0.12127
  17        2S          0.03232  -0.01337  -0.14739  -0.82234  -1.35704
  18        2PX        -0.30239  -0.39547  -0.37481  -0.19416   0.57037
  19        2PY         0.35325   0.03838  -0.49492  -1.01240   0.56113
  20        2PZ        -0.05063  -0.07011   0.00702   0.07015   0.08353
  21        3S         -0.01919  -0.30661  -0.76019  -1.39676  -1.66693
  22        3PX        -0.68984  -0.91066  -0.86510   0.04481   0.17552
  23        3PY         0.78926   0.14843  -0.89917  -0.56352   0.05796
  24        3PZ        -0.02631  -0.07442   0.02435   0.08599   0.10595
  25        4XX         0.25172  -0.00223  -0.31855   0.33142  -0.59220
  26        4YY        -0.20665  -0.00150   0.23196  -0.63434   0.59002
  27        4ZZ         0.38397   0.35658   0.21842   0.41176   0.86058
  28        4XY         0.15641  -0.06218  -0.33707   0.59383  -0.26242
  29        4XZ         0.54051  -0.13702   0.30162  -0.01048  -0.04458
  30        4YZ         0.30119  -0.78594   0.35853   0.05615  -0.04898
  31 3   O  1S          0.00418  -0.00059  -0.01216  -0.03512  -0.01996
  32        2S          0.52510   0.04370  -0.56608  -0.63242  -0.28289
  33        2PX        -0.02555  -0.04061  -0.02448  -0.00991   0.01420
  34        2PY        -0.19061   0.00177   0.10224  -0.14956   0.13258
  35        2PZ         0.01883   0.00278  -0.02608   0.01816  -0.00702
  36        3S         -1.21924  -0.09036   1.63895   2.22136   0.82641
  37        3PX         0.21064   0.35050   0.40522  -0.15124  -0.05454
  38        3PY         0.59610   0.08555  -0.77419  -1.38690  -0.30460
  39        3PZ        -0.13129   0.25475   0.00178   0.09944  -0.00008
  40        4XX         0.19483   0.03506  -0.18262  -0.54632  -0.03969
  41        4YY        -0.25260  -0.15908   0.41953   1.18154  -0.05058
  42        4ZZ         0.14423   0.10032  -0.29075  -0.53243  -0.13454
  43        4XY        -0.13537  -0.33122  -0.52690   0.35117   0.01307
  44        4XZ        -0.11751   0.08938  -0.00392  -0.03297   0.00010
  45        4YZ         0.23031  -0.65793   0.16317  -0.17328  -0.00955
  46 4   F  1S          0.01280   0.00495  -0.01531  -0.01064  -0.01037
  47        2S         -0.70776  -0.64890  -0.33336  -0.21958  -0.47476
  48        2PX         0.21268   0.15255   0.01095   0.07972   0.11497
  49        2PY        -0.01375  -0.06911  -0.12328   0.01878  -0.05940
  50        2PZ         0.00910  -0.01487  -0.00379  -0.00131  -0.00290
  51        3S          1.30383   1.28373   0.84959   0.49156   0.96368
  52        3PX        -0.65337  -0.53041  -0.17107  -0.28730  -0.51372
  53        3PY         0.07277   0.24877   0.43494   0.02747   0.22578
  54        3PZ        -0.00881   0.05274   0.01585   0.00623   0.01674
  55        4XX         0.36410   0.16874  -0.18761   0.29429   0.19861
  56        4YY        -0.20707  -0.10816   0.08346  -0.30043  -0.11651
  57        4ZZ        -0.23601  -0.18142  -0.10122  -0.13143  -0.23598
  58        4XY        -0.00398  -0.18931  -0.43391   0.03951  -0.32982
  59        4XZ         0.09541   0.02882   0.02718  -0.03630  -0.04313
  60        4YZ        -0.12565   0.08231   0.00222   0.00425   0.03229
                          56        57        58        59        60
                           V         V         V         V         V
     Eigenvalues --     3.01263   3.68214   4.00246   4.18224   4.56738
   1 1   F  1S          0.00549  -0.11620  -0.15656   0.21710  -0.69998
   2        2S          0.35845  -0.31001  -0.51601   0.56592  -2.72866
   3        2PX        -0.00354   0.00226  -0.13173   0.12916  -0.24759
   4        2PY        -0.04563  -0.03997   0.03863   0.12044  -0.18717
   5        2PZ         0.00071   0.01553   0.00458   0.02006  -0.03291
   6        3S         -0.90394   1.48948   2.07777  -2.59199  10.55792
   7        3PX        -0.69635   0.13932   0.52184   0.27992   1.47020
   8        3PY        -0.22504   0.30851  -0.18438   0.08173   1.10666
   9        3PZ        -0.07035  -0.03908  -0.00832   0.00703   0.16145
  10        4XX        -0.74077  -0.43110  -0.45231   1.21443  -2.45869
  11        4YY         0.36284  -0.45075  -0.73958   0.95050  -2.69679
  12        4ZZ         0.22305  -0.41990  -0.67046   0.77717  -3.00861
  13        4XY        -0.35589   0.11482   0.01201   0.29375   0.44861
  14        4XZ        -0.11300  -0.01444   0.01864   0.05829   0.05788
  15        4YZ        -0.02473   0.01701  -0.02053   0.03705   0.04382
  16 2   C  1S          0.02014  -0.01316   0.08648  -0.39388  -0.19082
  17        2S          0.75512   0.04069  -0.25157   2.64429   0.72049
  18        2PX        -0.59051   0.03124  -0.07990   0.11658   0.40560
  19        2PY         0.20412   0.01935   0.16202  -0.03457   0.17609
  20        2PZ        -0.05169   0.01452   0.00733   0.07013   0.05934
  21        3S          0.36733  -2.60043  -0.78186   0.00497  -1.14356
  22        3PX        -0.24802  -0.09724  -0.88873  -0.84357   2.18093
  23        3PY         0.02651  -1.13819   1.26938  -0.31685   1.32119
  24        3PZ        -0.00529   0.18480   0.07406   0.02128   0.13748
  25        4XX        -0.56816  -0.17195   0.16351  -2.08016  -0.88994
  26        4YY         0.80535   0.02443   0.13586  -2.04393  -0.89082
  27        4ZZ        -0.17297   0.15160   0.37568  -1.34175  -0.45217
  28        4XY         1.01100   0.01181   0.01817  -0.19750  -0.10495
  29        4XZ         0.02455  -0.00849   0.03322   0.01566  -0.06552
  30        4YZ         0.01049  -0.00008  -0.03173  -0.00398  -0.01443
  31 3   O  1S          0.02288  -0.49452   0.18256  -0.01518   0.06949
  32        2S          0.07727  -0.17258   0.23046  -0.11567   0.11314
  33        2PX        -0.02572  -0.00128  -0.01341  -0.01439   0.07558
  34        2PY         0.22180   0.21036  -0.12433  -0.19759  -0.14808
  35        2PZ        -0.02461  -0.01225   0.02337   0.01448   0.02799
  36        3S         -0.66114   5.42062  -2.28803   0.68798  -1.01149
  37        3PX        -0.14560   0.01722   0.21368   0.25529  -0.63021
  38        3PY         0.52667  -1.23286   0.56527  -0.54976   0.00786
  39        3PZ        -0.05284   0.06900  -0.09402   0.05797  -0.07726
  40        4XX         0.26801  -1.72700   0.59583  -0.08226   0.19134
  41        4YY        -0.59102  -1.40107   0.47326   0.40406   0.42748
  42        4ZZ         0.22100  -1.68405   0.71630  -0.11910   0.22271
  43        4XY         0.45982   0.00329  -0.05998  -0.12281   0.17307
  44        4XZ        -0.04432   0.00141   0.01359   0.02094  -0.03580
  45        4YZ         0.11921  -0.01954   0.01815  -0.06747  -0.00869
  46 4   F  1S         -0.02642  -0.17217  -0.59537  -0.14738   0.16478
  47        2S         -0.40333  -0.44039  -1.71546  -0.71854   0.48009
  48        2PX         0.08658   0.04005   0.26886   0.13296   0.00396
  49        2PY        -0.06071  -0.03674  -0.06448  -0.08143   0.11126
  50        2PZ        -0.00639   0.00590  -0.01495  -0.01515   0.02083
  51        3S          0.86855   2.10046   7.39448   2.33703  -2.24377
  52        3PX        -0.47613  -0.25760  -0.94042  -0.59389  -0.04339
  53        3PY         0.24752   0.21764   0.20698   0.35569  -0.43274
  54        3PZ         0.03809  -0.01295   0.05113   0.05565  -0.06727
  55        4XX         0.31014  -0.57161  -2.14511  -0.27121   0.86872
  56        4YY        -0.23601  -0.75330  -2.44337  -0.64387   0.54024
  57        4ZZ        -0.33732  -0.64345  -2.48175  -0.75901   0.60215
  58        4XY        -0.31635  -0.09860  -0.08694  -0.28268   0.04210
  59        4XZ        -0.06825   0.00259  -0.01717  -0.04294  -0.00701
  60        4YZ         0.02266   0.01767  -0.00550   0.02848  -0.02362
     Density Matrix:
                           1         2         3         4         5
   1 1   F  1S          2.08523
   2        2S         -0.21589   0.57461
   3        2PX         0.03108  -0.05641   0.70917
   4        2PY         0.01902  -0.03029  -0.10982   0.83624
   5        2PZ         0.00394  -0.00472  -0.02025  -0.01364   0.85873
   6        3S         -0.22222   0.56184  -0.15520  -0.09702  -0.02879
   7        3PX         0.01949  -0.04107   0.42665  -0.09449  -0.01885
   8        3PY         0.01213  -0.02294  -0.09200   0.52207  -0.01140
   9        3PZ         0.00244  -0.00315  -0.01680  -0.01077   0.57024
  10        4XX        -0.02275   0.01452   0.03623  -0.00833  -0.00057
  11        4YY        -0.02098   0.01109  -0.00722   0.02815   0.00051
  12        4ZZ        -0.02040   0.01001  -0.00109   0.00127   0.00662
  13        4XY        -0.00230   0.00446   0.00986   0.02144  -0.00087
  14        4XZ        -0.00030   0.00064   0.00151  -0.00116   0.03090
  15        4YZ        -0.00022   0.00049  -0.00116   0.00249   0.01954
  16 2   C  1S          0.00535  -0.01217  -0.08055  -0.04563  -0.00837
  17        2S          0.00149   0.00322   0.18725   0.10464   0.02169
  18        2PX         0.01556  -0.04905  -0.18068  -0.19134  -0.02691
  19        2PY         0.01301  -0.04052  -0.22545  -0.09182  -0.02125
  20        2PZ         0.00140  -0.00591  -0.02195  -0.01235   0.11914
  21        3S          0.01600  -0.03705   0.04332   0.06748  -0.00900
  22        3PX        -0.00533   0.01119   0.04552  -0.02134  -0.01819
  23        3PY        -0.00443   0.00743  -0.05639   0.10355  -0.02077
  24        3PZ        -0.00041  -0.00038  -0.00239  -0.00324   0.05755
  25        4XX        -0.00381   0.00993  -0.01134   0.03617   0.00301
  26        4YY         0.00100  -0.00160   0.00989  -0.03198  -0.00050
  27        4ZZ         0.00304  -0.00744  -0.01270  -0.00847  -0.00395
  28        4XY        -0.00848   0.01970   0.03807   0.01667   0.00560
  29        4XZ        -0.00087   0.00195   0.00403   0.00449  -0.02963
  30        4YZ        -0.00077   0.00184   0.00513   0.00199  -0.02873
  31 3   O  1S         -0.00026   0.00072  -0.00163   0.01522  -0.00202
  32        2S          0.00082  -0.00118  -0.00146  -0.02395   0.00026
  33        2PX        -0.01815   0.02832   0.02318   0.10947   0.00751
  34        2PY        -0.00899   0.02473   0.03533   0.09332  -0.00936
  35        2PZ        -0.00028  -0.00187   0.00155  -0.00262  -0.15063
  36        3S         -0.00459   0.01299   0.05685  -0.11582   0.03165
  37        3PX        -0.01127   0.01676   0.01004   0.07796   0.01175
  38        3PY        -0.00267   0.00811  -0.00339   0.08151  -0.01845
  39        3PZ        -0.00020  -0.00083   0.00571  -0.00520  -0.12297
  40        4XX        -0.00002   0.00006  -0.00394   0.00766  -0.00164
  41        4YY        -0.00018  -0.00005  -0.00009   0.00480  -0.00041
  42        4ZZ         0.00009   0.00018  -0.00081   0.00470  -0.00262
  43        4XY         0.00017   0.00028   0.00458  -0.00050  -0.00054
  44        4XZ        -0.00002  -0.00007  -0.00052   0.00038  -0.00164
  45        4YZ        -0.00004   0.00030   0.00053   0.00045   0.00566
  46 4   F  1S          0.00033   0.00028   0.01038  -0.00416  -0.00099
  47        2S          0.00094  -0.00173  -0.01725   0.00222  -0.00254
  48        2PX        -0.01438   0.02246   0.15040  -0.01609   0.00547
  49        2PY        -0.00649  -0.00821   0.01043   0.00105   0.00123
  50        2PZ        -0.00100  -0.00539  -0.00517   0.00225  -0.04857
  51        3S         -0.00454   0.00860  -0.05968   0.03655   0.01581
  52        3PX        -0.00786   0.01088   0.11042  -0.02397   0.00055
  53        3PY        -0.00464  -0.00533   0.00269  -0.00154   0.00686
  54        3PZ        -0.00066  -0.00381  -0.00541   0.00338  -0.04154
  55        4XX         0.00080  -0.00089   0.00436  -0.00035  -0.00213
  56        4YY         0.00048  -0.00101   0.00292  -0.00495  -0.00147
  57        4ZZ         0.00081  -0.00130   0.00261  -0.00316  -0.00239
  58        4XY         0.00016   0.00024   0.00210  -0.00042  -0.00094
  59        4XZ        -0.00001   0.00024   0.00062  -0.00035   0.00084
  60        4YZ        -0.00004  -0.00008  -0.00010  -0.00013  -0.00209
                           6         7         8         9        10
   6        3S          0.62507
   7        3PX        -0.08718   0.25990
   8        3PY        -0.05400  -0.07158   0.32829
   9        3PZ        -0.01760  -0.01432  -0.00849   0.38003
  10        4XX         0.00391   0.02070  -0.00705  -0.00061   0.00324
  11        4YY         0.00414  -0.00629   0.01696   0.00024   0.00043
  12        4ZZ         0.00666  -0.00144   0.00038   0.00435   0.00065
  13        4XY        -0.00021   0.00504   0.01284  -0.00070   0.00074
  14        4XZ        -0.00051   0.00070  -0.00092   0.02018   0.00012
  15        4YZ        -0.00032  -0.00091   0.00146   0.01272  -0.00004
  16 2   C  1S          0.01402  -0.04938  -0.02766  -0.00452  -0.00868
  17        2S         -0.07314   0.10629   0.05705   0.01105   0.01762
  18        2PX         0.02998  -0.09420  -0.10249  -0.01529  -0.00798
  19        2PY         0.02114  -0.12208  -0.04708  -0.01165  -0.01705
  20        2PZ         0.00534  -0.01040  -0.00637   0.06088  -0.00270
  21        3S         -0.07330   0.02168   0.03776  -0.00847   0.00628
  22        3PX         0.04055   0.03441  -0.00806  -0.01149   0.00074
  23        3PY         0.03880  -0.03038   0.06647  -0.01285  -0.00688
  24        3PZ         0.00460  -0.00013  -0.00100   0.02888  -0.00086
  25        4XX         0.00898  -0.00835   0.02230   0.00200  -0.00040
  26        4YY        -0.00034   0.00716  -0.01974  -0.00037   0.00044
  27        4ZZ        -0.00246  -0.00709  -0.00465  -0.00228  -0.00122
  28        4XY         0.02168   0.02372   0.01062   0.00387   0.00147
  29        4XZ         0.00200   0.00240   0.00286  -0.02001   0.00016
  30        4YZ         0.00137   0.00326   0.00095  -0.01995   0.00034
  31 3   O  1S         -0.00362  -0.00292   0.00688  -0.00140  -0.00008
  32        2S          0.00999   0.00345  -0.00792   0.00033   0.00005
  33        2PX         0.14413   0.03516   0.09846   0.00936  -0.00692
  34        2PY         0.02676   0.01356   0.05786  -0.00912   0.00118
  35        2PZ         0.00851   0.00674  -0.00201  -0.12001  -0.00105
  36        3S          0.00574   0.03477  -0.06626   0.01992   0.00536
  37        3PX         0.09207   0.01964   0.06824   0.01083  -0.00498
  38        3PY         0.01585  -0.00533   0.05141  -0.01362  -0.00121
  39        3PZ         0.00413   0.00707  -0.00388  -0.09394  -0.00020
  40        4XX         0.00146  -0.00238   0.00473  -0.00101  -0.00040
  41        4YY        -0.00139   0.00016   0.00290  -0.00005   0.00016
  42        4ZZ         0.00095  -0.00045   0.00295  -0.00187  -0.00016
  43        4XY        -0.00654   0.00155  -0.00194  -0.00064   0.00055
  44        4XZ         0.00062  -0.00021   0.00042  -0.00109  -0.00007
  45        4YZ        -0.00030  -0.00003   0.00027   0.00508   0.00009
  46 4   F  1S         -0.00389   0.00466  -0.00316  -0.00070   0.00061
  47        2S          0.00351  -0.00695   0.00142  -0.00170  -0.00012
  48        2PX         0.10088   0.10990  -0.00850   0.00514  -0.00925
  49        2PY         0.09955   0.02794  -0.00027   0.00520  -0.00770
  50        2PZ         0.02456  -0.00084   0.01094  -0.04888  -0.00334
  51        3S          0.00971  -0.03521   0.02100   0.01036  -0.00378
  52        3PX         0.06816   0.08083  -0.01286   0.00157  -0.00589
  53        3PY         0.06603   0.01586  -0.00191   0.00752  -0.00539
  54        3PZ         0.01663  -0.00185   0.00865  -0.03865  -0.00239
  55        4XX        -0.00613   0.00192  -0.00055  -0.00154   0.00135
  56        4YY         0.00217   0.00260  -0.00276  -0.00084   0.00000
  57        4ZZ        -0.00022   0.00193  -0.00184  -0.00163   0.00011
  58        4XY        -0.00169   0.00082  -0.00034  -0.00074   0.00006
  59        4XZ        -0.00041   0.00033  -0.00048   0.00124   0.00007
  60        4YZ         0.00045   0.00004   0.00000  -0.00164  -0.00004
                          11        12        13        14        15
  11        4YY         0.00192
  12        4ZZ         0.00067   0.00055
  13        4XY         0.00094   0.00014   0.00102
  14        4XZ        -0.00001   0.00025   0.00000   0.00122
  15        4YZ         0.00013   0.00018   0.00006   0.00079   0.00054
  16 2   C  1S         -0.00274   0.00088  -0.00735  -0.00116  -0.00083
  17        2S          0.00698   0.00080   0.01325   0.00209   0.00152
  18        2PX        -0.01279  -0.00349  -0.00939  -0.00156  -0.00156
  19        2PY         0.00081  -0.00256  -0.00214  -0.00163  -0.00018
  20        2PZ        -0.00183   0.00057  -0.00141   0.00964   0.00746
  21        3S          0.00265  -0.00030   0.00527   0.00057   0.00069
  22        3PX        -0.00442  -0.00179   0.00016  -0.00053  -0.00064
  23        3PY         0.00109  -0.00199   0.00196  -0.00079   0.00009
  24        3PZ        -0.00074   0.00011  -0.00015   0.00459   0.00335
  25        4XX         0.00090   0.00018   0.00045   0.00008   0.00014
  26        4YY        -0.00077  -0.00001  -0.00056   0.00002  -0.00007
  27        4ZZ        -0.00064  -0.00022  -0.00088  -0.00027  -0.00019
  28        4XY        -0.00003  -0.00000   0.00123   0.00030   0.00017
  29        4XZ         0.00017  -0.00024   0.00025  -0.00106  -0.00074
  30        4YZ        -0.00001  -0.00009   0.00007  -0.00068  -0.00028
  31 3   O  1S         -0.00032   0.00007  -0.00013   0.00001   0.00002
  32        2S          0.00071  -0.00003   0.00055  -0.00017  -0.00004
  33        2PX        -0.00877  -0.00474   0.00251  -0.00031   0.00015
  34        2PY        -0.00315   0.00127  -0.00494   0.00040   0.00007
  35        2PZ        -0.00107  -0.00076  -0.00009   0.00146   0.00350
  36        3S         -0.00188   0.00221  -0.00369   0.00103  -0.00003
  37        3PX        -0.00540  -0.00301   0.00168  -0.00000   0.00029
  38        3PY        -0.00107   0.00006  -0.00183  -0.00025  -0.00001
  39        3PZ        -0.00072  -0.00047  -0.00020  -0.00005   0.00168
  40        4XX         0.00005  -0.00010   0.00005  -0.00007  -0.00001
  41        4YY         0.00053  -0.00009   0.00078  -0.00006   0.00000
  42        4ZZ         0.00001  -0.00006   0.00005  -0.00004   0.00002
  43        4XY         0.00067   0.00028   0.00014   0.00002   0.00001
  44        4XZ        -0.00005  -0.00005  -0.00000  -0.00007  -0.00005
  45        4YZ         0.00005   0.00003  -0.00000  -0.00024  -0.00031
  46 4   F  1S         -0.00013   0.00066  -0.00021  -0.00003  -0.00011
  47        2S          0.00009  -0.00055  -0.00004  -0.00013  -0.00004
  48        2PX        -0.00416  -0.00429   0.00162   0.00035   0.00017
  49        2PY        -0.01333  -0.00876  -0.00001   0.00044  -0.00026
  50        2PZ        -0.00236  -0.00366   0.00073  -0.00035  -0.00277
  51        3S          0.00344   0.00049  -0.00030   0.00037   0.00065
  52        3PX        -0.00394  -0.00325   0.00088   0.00012  -0.00006
  53        3PY        -0.00877  -0.00574  -0.00019   0.00048  -0.00005
  54        3PZ        -0.00149  -0.00257   0.00053  -0.00067  -0.00222
  55        4XX         0.00001   0.00010   0.00028  -0.00003  -0.00006
  56        4YY        -0.00056  -0.00026  -0.00006  -0.00005  -0.00007
  57        4ZZ        -0.00030  -0.00014  -0.00003  -0.00007  -0.00008
  58        4XY         0.00024   0.00018  -0.00009  -0.00004  -0.00002
  59        4XZ         0.00006   0.00009  -0.00002  -0.00008   0.00000
  60        4YZ        -0.00005  -0.00006   0.00000  -0.00002  -0.00002
                          16        17        18        19        20
  16 2   C  1S          2.04586
  17        2S         -0.07952   0.40148
  18        2PX        -0.00266   0.00481   0.30507
  19        2PY        -0.02254   0.05491   0.00748   0.39162
  20        2PZ        -0.00267   0.00527   0.00237  -0.00370   0.32217
  21        3S         -0.08817   0.19090   0.04200  -0.00056   0.02413
  22        3PX        -0.00977   0.01890   0.05464  -0.01957  -0.00148
  23        3PY         0.00546  -0.01172  -0.02139   0.03528   0.00600
  24        3PZ        -0.00606   0.01365  -0.00068   0.00060   0.14968
  25        4XX        -0.01093  -0.01300  -0.00324  -0.02662   0.00021
  26        4YY        -0.01630  -0.00091  -0.00050   0.01544   0.00084
  27        4ZZ        -0.00922  -0.02128   0.00458  -0.00117  -0.00260
  28        4XY        -0.00104   0.00511  -0.01359  -0.01306  -0.00089
  29        4XZ         0.00003   0.00017  -0.00312  -0.00089  -0.00448
  30        4YZ        -0.00007   0.00009  -0.00087  -0.00433   0.01489
  31 3   O  1S          0.00918  -0.00766   0.00106  -0.03688   0.00409
  32        2S         -0.02202   0.02200  -0.00369   0.08986  -0.01013
  33        2PX        -0.00716   0.02211   0.19149  -0.01621  -0.00395
  34        2PY         0.11090  -0.27863  -0.00042  -0.36390   0.05040
  35        2PZ        -0.01693   0.03840  -0.00246   0.03289   0.36358
  36        3S          0.02173  -0.08600  -0.00169  -0.03440  -0.00592
  37        3PX        -0.00233   0.01040   0.11956  -0.00697  -0.00255
  38        3PY         0.05414  -0.13433   0.00195  -0.17396   0.02942
  39        3PZ        -0.00906   0.01993  -0.00138   0.01638   0.22670
  40        4XX         0.00129  -0.00318  -0.00050  -0.00303   0.00014
  41        4YY        -0.01078   0.02566  -0.00045   0.02155  -0.00459
  42        4ZZ         0.00053  -0.00130  -0.00008  -0.00249   0.00327
  43        4XY         0.00012  -0.00046  -0.01539   0.00069   0.00009
  44        4XZ         0.00003  -0.00005   0.00133   0.00002  -0.00058
  45        4YZ         0.00153  -0.00340   0.00007  -0.00312  -0.02394
  46 4   F  1S         -0.00105   0.00774  -0.00133   0.00267   0.00038
  47        2S         -0.00132  -0.01113   0.01519  -0.01279  -0.00237
  48        2PX         0.06695  -0.15216  -0.24061   0.17078   0.00640
  49        2PY        -0.01727   0.03919   0.09521  -0.03624  -0.00179
  50        2PZ        -0.00607   0.01569   0.02057  -0.01335   0.07516
  51        3S          0.02917  -0.07629  -0.05896   0.02017   0.00334
  52        3PX         0.04332  -0.09483  -0.14474   0.11182   0.00252
  53        3PY        -0.00934   0.02037   0.05881  -0.02207  -0.00119
  54        3PZ        -0.00341   0.00888   0.01310  -0.00862   0.04301
  55        4XX        -0.01068   0.02033   0.01633  -0.01298  -0.00128
  56        4YY        -0.00183   0.00346   0.00694  -0.00043  -0.00087
  57        4ZZ        -0.00116   0.00237   0.00403  -0.00158  -0.00008
  58        4XY         0.00365  -0.00705  -0.00656  -0.00053   0.00048
  59        4XZ         0.00080  -0.00157  -0.00141   0.00092  -0.00594
  60        4YZ        -0.00030   0.00059   0.00058   0.00007   0.00280
                          21        22        23        24        25
  21        3S          0.12526
  22        3PX         0.00450   0.04155
  23        3PY         0.00357   0.00441   0.06143
  24        3PZ         0.01310   0.00158   0.00105   0.07374
  25        4XX        -0.00075  -0.00116   0.00748  -0.00039   0.00466
[...]
  42        4ZZ         0.00026  -0.00000   0.00093  -0.00002   0.00002
  43        4XY         0.00000   0.00127   0.00000   0.00000   0.00000
  44        4XZ        -0.00000   0.00001  -0.00000  -0.00000   0.00000
  45        4YZ         0.00005   0.00000   0.00001   0.00172  -0.00001
  46 4   F  1S          0.00034   0.00039   0.00006  -0.00000  -0.00001
  47        2S         -0.00395  -0.00462  -0.00080   0.00001   0.00066
  48        2PX         0.01200  -0.00157   0.00524   0.00007   0.00102
  49        2PY         0.00221   0.00284   0.00744   0.00001   0.00123
  50        2PZ        -0.00004   0.00024   0.00006   0.00631   0.00002
  51        3S         -0.02335  -0.02218  -0.00359  -0.00001   0.00214
  52        3PX         0.03495  -0.00449   0.01143   0.00014   0.00253
  53        3PY         0.00616   0.00579   0.02541   0.00003   0.00304
  54        3PZ        -0.00014   0.00054   0.00013   0.01845   0.00004
  55        4XX         0.00371   0.00046   0.00091   0.00001   0.00015
  56        4YY         0.00042   0.00117  -0.00014   0.00001  -0.00000
  57        4ZZ         0.00029   0.00052  -0.00001  -0.00000   0.00000
  58        4XY         0.00029   0.00007   0.00027   0.00000   0.00009
  59        4XZ         0.00001   0.00001   0.00000   0.00054   0.00000
  60        4YZ         0.00000   0.00000   0.00000   0.00008   0.00000
                          26        27        28        29        30
  26        4YY         0.00317
  27        4ZZ        -0.00001   0.00154
  28        4XY         0.00000  -0.00000   0.00702
  29        4XZ        -0.00000  -0.00000  -0.00000   0.00166
  30        4YZ         0.00000   0.00000   0.00000   0.00000   0.00282
  31 3   O  1S         -0.00055   0.00000  -0.00000   0.00000  -0.00001
  32        2S          0.00731  -0.00036   0.00000  -0.00000   0.00012
  33        2PX        -0.00000   0.00000   0.00717   0.00003  -0.00000
  34        2PY         0.00345  -0.00063   0.00001  -0.00000   0.00035
  35        2PZ         0.00012   0.00003   0.00000   0.00000   0.00480
  36        3S          0.01166  -0.00101   0.00000  -0.00000   0.00010
  37        3PX        -0.00000   0.00000   0.00774   0.00003  -0.00000
  38        3PY         0.00298  -0.00187   0.00000  -0.00000   0.00011
  39        3PZ         0.00012  -0.00002   0.00000   0.00000   0.00557
  40        4XX        -0.00018   0.00001   0.00000  -0.00000  -0.00000
  41        4YY         0.00003  -0.00020  -0.00000   0.00000   0.00003
  42        4ZZ        -0.00009   0.00001  -0.00000  -0.00000   0.00001
  43        4XY        -0.00000   0.00000   0.00058   0.00001   0.00000
  44        4XZ        -0.00000  -0.00000   0.00000   0.00001  -0.00000
  45        4YZ         0.00002   0.00001   0.00000   0.00000   0.00069
  46 4   F  1S          0.00000   0.00000  -0.00001  -0.00000  -0.00000
  47        2S         -0.00009  -0.00002   0.00046   0.00001   0.00000
  48        2PX        -0.00034  -0.00004   0.00261   0.00004   0.00001
  49        2PY         0.00003  -0.00001  -0.00001   0.00001  -0.00000
  50        2PZ        -0.00000   0.00000   0.00002   0.00066   0.00018
  51        3S         -0.00044  -0.00007   0.00106   0.00001   0.00000
  52        3PX        -0.00195  -0.00046   0.00382   0.00006   0.00001
  53        3PY        -0.00033  -0.00007   0.00000   0.00002   0.00000
  54        3PZ        -0.00003  -0.00000   0.00003   0.00240   0.00064
  55        4XX        -0.00012  -0.00007   0.00031   0.00000   0.00000
  56        4YY        -0.00000  -0.00000   0.00000   0.00000   0.00000
  57        4ZZ        -0.00000  -0.00000  -0.00000   0.00000  -0.00000
  58        4XY         0.00000  -0.00001  -0.00000   0.00000   0.00000
  59        4XZ        -0.00000   0.00000   0.00001   0.00009   0.00001
  60        4YZ         0.00000   0.00000  -0.00000   0.00002   0.00000
                          31        32        33        34        35
  31 3   O  1S          2.08014
  32        2S         -0.04398   0.52982
  33        2PX         0.00000   0.00000   0.80953
  34        2PY         0.00000   0.00000  -0.00000   0.56407
  35        2PZ         0.00000   0.00000   0.00000  -0.00000   0.57929
  36        3S         -0.04256   0.46372   0.00000   0.00000   0.00000
  37        3PX         0.00000   0.00000   0.26347  -0.00000   0.00000
  38        3PY         0.00000   0.00000  -0.00000   0.14370  -0.00000
  39        3PZ         0.00000   0.00000   0.00000  -0.00000   0.19064
  40        4XX        -0.00036  -0.00578   0.00000   0.00000   0.00000
  41        4YY        -0.00037  -0.00457   0.00000   0.00000   0.00000
  42        4ZZ        -0.00044  -0.00328   0.00000   0.00000   0.00000
  43        4XY        -0.00000  -0.00000   0.00000   0.00000   0.00000
  44        4XZ         0.00000   0.00000   0.00000   0.00000   0.00000
  45        4YZ         0.00000  -0.00000   0.00000   0.00000   0.00000
  46 4   F  1S          0.00000   0.00000   0.00000   0.00000   0.00000
  47        2S          0.00000  -0.00000  -0.00000  -0.00000  -0.00000
  48        2PX         0.00000  -0.00000  -0.00001  -0.00001  -0.00000
  49        2PY         0.00000  -0.00000  -0.00001  -0.00001  -0.00000
  50        2PZ         0.00000   0.00000   0.00000  -0.00000  -0.00000
  51        3S         -0.00000   0.00003  -0.00059  -0.00023   0.00000
  52        3PX         0.00000  -0.00014  -0.00095  -0.00096  -0.00000
  53        3PY         0.00001  -0.00016  -0.00127  -0.00083  -0.00000
  54        3PZ         0.00000   0.00000   0.00000  -0.00000  -0.00029
  55        4XX         0.00000  -0.00000  -0.00000  -0.00000  -0.00000
  56        4YY         0.00000  -0.00000   0.00002   0.00000  -0.00000
  57        4ZZ         0.00000  -0.00000   0.00000   0.00000   0.00000
  58        4XY         0.00000  -0.00000  -0.00000   0.00001  -0.00000
  59        4XZ         0.00000   0.00000   0.00000   0.00000   0.00000
  60        4YZ        -0.00000   0.00000   0.00000   0.00000   0.00000
                          36        37        38        39        40
  36        3S          0.80461
  37        3PX         0.00000   0.34130
  38        3PY         0.00000  -0.00000   0.15121
  39        3PZ         0.00000   0.00000  -0.00000   0.25142
  40        4XX        -0.00951   0.00000   0.00000   0.00000   0.00057
  41        4YY        -0.01657   0.00000   0.00000   0.00000   0.00003
  42        4ZZ        -0.00509   0.00000   0.00000   0.00000   0.00012
  43        4XY         0.00000   0.00000   0.00000   0.00000   0.00000
  44        4XZ         0.00000   0.00000   0.00000   0.00000  -0.00000
  45        4YZ        -0.00000   0.00000   0.00000   0.00000   0.00000
  46 4   F  1S         -0.00000   0.00003   0.00001  -0.00000  -0.00000
  47        2S          0.00004  -0.00042  -0.00021  -0.00000   0.00000
  48        2PX         0.00017  -0.00082  -0.00078  -0.00000  -0.00000
  49        2PY        -0.00136  -0.00134  -0.00172  -0.00000   0.00001
  50        2PZ        -0.00000   0.00000  -0.00000  -0.00049   0.00000
  51        3S          0.00114  -0.00539  -0.00157   0.00000   0.00002
  52        3PX         0.00139  -0.00434  -0.00415  -0.00000  -0.00002
  53        3PY        -0.00895  -0.00752  -0.00745  -0.00000   0.00033
  54        3PZ        -0.00001   0.00001  -0.00001  -0.00378   0.00000
  55        4XX        -0.00003  -0.00007  -0.00001  -0.00000  -0.00000
  56        4YY        -0.00010   0.00038   0.00002  -0.00000   0.00000
  57        4ZZ        -0.00002   0.00005   0.00000  -0.00000   0.00000
  58        4XY        -0.00015  -0.00004   0.00002  -0.00000   0.00000
  59        4XZ        -0.00000   0.00000   0.00000   0.00000   0.00000
  60        4YZ         0.00000   0.00000   0.00000   0.00003  -0.00000
                          41        42        43        44        45
  41        4YY         0.00308
  42        4ZZ         0.00001   0.00031
  43        4XY        -0.00000  -0.00000   0.00185
  44        4XZ         0.00000  -0.00000   0.00000   0.00003
  45        4YZ        -0.00000   0.00000  -0.00000   0.00000   0.00225
  46 4   F  1S          0.00000   0.00000   0.00000   0.00000  -0.00000
  47        2S         -0.00000  -0.00000  -0.00000  -0.00000  -0.00000
  48        2PX        -0.00000  -0.00000   0.00000   0.00000  -0.00000
  49        2PY         0.00000   0.00000   0.00000  -0.00000  -0.00000
  50        2PZ         0.00000  -0.00000   0.00000   0.00000  -0.00000
  51        3S         -0.00006  -0.00000  -0.00012  -0.00000   0.00000
  52        3PX        -0.00008  -0.00001  -0.00001  -0.00000  -0.00000
  53        3PY         0.00004   0.00005  -0.00002  -0.00000  -0.00000
  54        3PZ         0.00000   0.00000   0.00000   0.00002  -0.00005
  55        4XX         0.00000  -0.00000   0.00000   0.00000  -0.00000
  56        4YY         0.00000   0.00000   0.00001   0.00000  -0.00000
  57        4ZZ         0.00000   0.00000   0.00000  -0.00000   0.00000
  58        4XY         0.00001   0.00000   0.00000  -0.00000  -0.00000
  59        4XZ         0.00000  -0.00000   0.00000   0.00000   0.00000
  60        4YZ         0.00000   0.00000   0.00000   0.00000   0.00000
                          46        47        48        49        50
  46 4   F  1S          2.08736
  47        2S         -0.05259   0.56263
  48        2PX         0.00000   0.00000   0.62387
  49        2PY         0.00000   0.00000   0.00000   0.87939
  50        2PZ         0.00000   0.00000   0.00000   0.00000   0.86363
  51        3S         -0.04081   0.44847   0.00000   0.00000   0.00000
  52        3PX         0.00000   0.00000   0.20610   0.00000   0.00000
  53        3PY         0.00000   0.00000   0.00000   0.29403   0.00000
  54        3PZ         0.00000   0.00000   0.00000   0.00000   0.29876
  55        4XX        -0.00053   0.00692   0.00000   0.00000   0.00000
  56        4YY        -0.00041   0.00201   0.00000   0.00000   0.00000
  57        4ZZ        -0.00041   0.00199   0.00000   0.00000   0.00000
  58        4XY         0.00000  -0.00000   0.00000   0.00000   0.00000
  59        4XZ         0.00000  -0.00000   0.00000   0.00000   0.00000
  60        4YZ         0.00000  -0.00000   0.00000   0.00000   0.00000
                          51        52        53        54        55
  51        3S          0.64996
  52        3PX         0.00000   0.27496
  53        3PY         0.00000   0.00000   0.39443
  54        3PZ         0.00000   0.00000   0.00000   0.41453
  55        4XX         0.00566   0.00000   0.00000   0.00000   0.00348
  56        4YY         0.00131   0.00000   0.00000   0.00000   0.00021
  57        4ZZ         0.00203   0.00000   0.00000   0.00000   0.00020
  58        4XY        -0.00000   0.00000   0.00000   0.00000  -0.00000
  59        4XZ        -0.00000   0.00000   0.00000   0.00000  -0.00000
  60        4YZ        -0.00000   0.00000   0.00000   0.00000  -0.00000
                          56        57        58        59        60
  56        4YY         0.00058
  57        4ZZ         0.00012   0.00029
  58        4XY        -0.00000  -0.00000   0.00069
  59        4XZ        -0.00000  -0.00000  -0.00000   0.00073
  60        4YZ        -0.00000  -0.00000  -0.00000  -0.00000   0.00008
     Gross orbital populations:
                           1
   1 1   F  1S          1.99320
   2        2S          0.96957
   3        2PX         0.99664
   4        2PY         1.13829
   5        2PZ         1.15890
   6        3S          0.92104
   7        3PX         0.56833
   8        3PY         0.63318
   9        3PZ         0.69181
  10        4XX         0.02846
  11        4YY         0.01754
  12        4ZZ         0.01174
  13        4XY         0.00633
  14        4XZ         0.00388
  15        4YZ         0.00202
  16 2   C  1S          1.99163
  17        2S          0.72647
  18        2PX         0.54517
  19        2PY         0.66250
  20        2PZ         0.52701
  21        3S          0.23651
  22        3PX         0.11109
  23        3PY         0.08261
  24        3PZ         0.27509
  25        4XX         0.00553
  26        4YY         0.01870
  27        4ZZ        -0.02782
  28        4XY         0.04994
  29        4XZ         0.01198
  30        4YZ         0.02023
  31 3   O  1S          1.99286
  32        2S          0.93344
  33        2PX         1.11154
  34        2PY         0.86336
  35        2PZ         0.82400
  36        3S          1.01943
  37        3PX         0.65864
  38        3PY         0.40557
  39        3PZ         0.54543
  40        4XX        -0.01324
  41        4YY         0.00566
  42        4ZZ        -0.00772
  43        4XY         0.00675
  44        4XZ         0.00011
  45        4YZ         0.00999
  46 4   F  1S          1.99341
  47        2S          0.96150
  48        2PX         0.88016
  49        2PY         1.18716
  50        2PZ         1.17074
  51        3S          0.98633
  52        3PX         0.58989
  53        3PY         0.71280
  54        3PZ         0.73630
  55        4XX         0.03080
  56        4YY         0.00672
  57        4ZZ         0.00555
  58        4XY         0.00294
  59        4XZ         0.00202
  60        4YZ         0.00033
          Condensed to atoms (all electrons):
               1          2          3          4
     1  F    8.910337   0.295646  -0.046624  -0.018440
     2  C    0.295646   4.228683   0.477309   0.235005
     3  O   -0.046624   0.477309   7.977822  -0.052701
     4  F   -0.018440   0.235005  -0.052701   9.102770
 Mulliken charges:
               1
     1  F   -0.140918
     2  C    0.763358
     3  O   -0.355806
     4  F   -0.266634
 Sum of Mulliken charges =  -0.00000
 Mulliken charges with hydrogens summed into heavy atoms:
               1
     1  F   -0.140918
     2  C    0.763358
     3  O   -0.355806
     4  F   -0.266634
 Electronic spatial extent (au):  <R**2>=            222.0447
 Charge=             -0.0000 electrons
 Dipole moment (field-independent basis, Debye):
    X=             -1.0622    Y=             -1.4286    Z=              0.2294  Tot=              1.7949
 Quadrupole moment (field-independent basis, Debye-Ang):
   XX=            -20.8544   YY=            -22.3697   ZZ=            -18.6465
   XY=              0.6658   XZ=             -0.0448   YZ=             -0.0292
 Traceless Quadrupole moment (field-independent basis, Debye-Ang):
   XX=             -0.2308   YY=             -1.7462   ZZ=              1.9770
   XY=              0.6658   XZ=             -0.0448   YZ=             -0.0292
 Octapole moment (field-independent basis, Debye-Ang**2):
  XXX=             -1.0607  YYY=             -8.1031  ZZZ=             -0.2843  XYY=              0.0229
  XXY=             -1.5855  XXZ=             -0.2501  XZZ=             -0.1568  YZZ=             -1.6436
  YYZ=             -0.2256  XYZ=             -0.0097
 Hexadecapole moment (field-independent basis, Debye-Ang**3):
 XXXX=            -98.4682 YYYY=            -93.1490 ZZZZ=            -12.2673 XXXY=              1.7345
 XXXZ=             -0.0537 YYYX=              1.8047 YYYZ=             -0.0999 ZZZX=              0.0160
 ZZZY=             -0.0180 XXYY=            -32.0349 XXZZ=            -18.7657 YYZZ=            -16.8363
 XXYZ=              0.1587 YYXZ=              0.0342 ZZXY=              0.3875
 N-N= 1.103304390927D+02 E-N=-9.617978071257D+02  KE= 3.100331622642D+02
 Orbital energies and kinetic energies (alpha):
                                 1                 2
   1         O               -24.826882         37.082447
   2         O               -24.737521         37.086395
   3         O               -19.214342         29.033619
   4         O               -10.475678         15.897734
   5         O                -1.343368          3.614614
   6         O                -1.193850          3.723228
   7         O                -1.063673          2.838993
   8         O                -0.703380          3.088023
   9         O                -0.591501          2.671125
  10         O                -0.568932          2.647056
  11         O                -0.544872          2.891707
  12         O                -0.464384          3.030685
  13         O                -0.446278          2.951956
  14         O                -0.429743          3.117780
  15         O                -0.381168          2.636431
  16         O                -0.340312          2.704790
  17         V                -0.088011          2.723194
  18         V                -0.021421          3.333299
  19         V                 0.181525          3.196911
  20         V                 0.282356          2.481912
  21         V                 0.467409          2.303298
  22         V                 0.475510          1.954157
  23         V                 0.498269          2.030874
  24         V                 0.546285          2.705026
  25         V                 0.835798          2.658979
  26         V                 0.929993          3.564220
  27         V                 0.935125          3.448248
  28         V                 1.039599          3.261746
  29         V                 1.076845          3.972525
  30         V                 1.117754          3.613227
  31         V                 1.217980          3.085368
  32         V                 1.256047          4.177041
  33         V                 1.259847          4.140096
  34         V                 1.330307          3.766339
  35         V                 1.355022          2.801358
  36         V                 1.387839          2.910140
  37         V                 1.520480          3.502233
  38         V                 1.602724          3.502330
  39         V                 1.722637          3.091278
  40         V                 1.748147          2.844868
  41         V                 1.765537          2.929429
  42         V                 1.778570          3.042538
  43         V                 1.814130          3.163234
  44         V                 1.829454          2.829620
  45         V                 1.835508          3.006514
  46         V                 1.890104          3.162949
  47         V                 1.941112          3.378979
  48         V                 1.962058          3.387070
  49         V                 2.100039          3.631919
  50         V                 2.342756          3.837325
  51         V                 2.532475          4.575017
  52         V                 2.550390          4.367260
  53         V                 2.653159          4.870435
  54         V                 2.812408          4.755350
  55         V                 2.956831          5.714714
  56         V                 3.012628          4.764693
  57         V                 3.682137         10.321424
  58         V                 4.002460         11.453519
  59         V                 4.182238          9.786385
  60         V                 4.567381         12.372436
 Total kinetic energy from orbitals= 3.100331622642D+02
 Unable to Open any file for archive entry.
 1\1\GINC-SPARTAN-BM162\SP\RB3LYP\6-31G(d)\C1F2O1\AKHALILOV\20-Mar-2025
 \0\\# B3LYP/6-31G(d) pop=full density=current\\CF2O Time step 40\\0,1\
 F,0,1.220244,-0.5821,0.053507\C,0,0.101096,0.076668,-0.085483\O,0,0.00
 0105,1.347366,-0.074038\F,0,-1.284188,-0.600684,0.06282\\Version=ES64L
 -G16RevC.01\State=1-A\HF=-312.9521153\RMSD=1.632e-09\Dipole=0.4620507,
 -0.5311239,-0.0557789\Quadrupole=-0.0987054,-1.354751,1.4534564,-0.397
 2384,0.0009512,0.218345\PG=C01 [X(C1F2O1)]\\@
 The archive entry for this job was punched.


 Statistics are no substitute for judgment.
                            -- Henry Clay
 Job cpu time:       0 days  0 hours  0 minutes  3.0 seconds.
 Elapsed time:       0 days  0 hours  0 minutes  1.0 seconds.
 File lengths (MBytes):  RWF=      6 Int=      0 D2E=      0 Chk=      1 Scr=      1
 Normal termination of Gaussian 16 at Thu Mar 20 00:08:09 2025.
