CF2O Time step 45                                                       
SP        RB3LYP                                                      6-31G(d)            
Number of atoms                            I                4
Info1-9                                    I   N=           9
          13          13           0           0           0         110
           1          18        -502
Full Title                                 C   N=           2
CF2O Time step 45       
Route                                      C   N=           4
# B3LYP/6-31G(d) pop=full density=current       
Charge                                     I                0
Multiplicity                               I                1
Number of electrons                        I               32
Number of alpha electrons                  I               16
Number of beta electrons                   I               16
Number of basis functions                  I               60
Number of independent functions            I               60
Number of point charges in /Mol/           I                0
Number of translation vectors              I                0
Atomic numbers                             I   N=           4
           9           6           8           9
Nuclear charges                            R   N=           4
  9.00000000E+00  6.00000000E+00  8.00000000E+00  9.00000000E+00
Current cartesian coordinates              R   N=          12
 -2.20870806E+00 -1.33804019E+00 -4.14203762E-02 -2.17880683E-01  1.11833149E-01
  1.64560470E-01 -2.16378613E-01  2.50693198E+00 -4.32850199E-02  2.54629839E+00
 -9.64899220E-01 -2.98110302E-02
Number of symbols in /Mol/                 I                0
Int Atom Types                             I   N=           4
           0           0           0           0
Force Field                                I                0
Atom Types                                 C   N=           4
                                                
MM charges                                 R   N=           4
  0.00000000E+00  0.00000000E+00  0.00000000E+00  0.00000000E+00
Integer atomic weights                     I   N=           4
          19          12          16          19
Real atomic weights                        R   N=           4
  1.89984032E+01  1.20000000E+01  1.59949146E+01  1.89984032E+01
Atom fragment info                         I   N=           4
           0           0           0           0
Atom residue num                           I   N=           4
           0           0           0           0
Nuclear spins                              I   N=           4
           1           0           0           1
Nuclear ZEff                               R   N=           4
 -6.75000000E+00 -3.60000000E+00 -5.60000000E+00 -6.75000000E+00
Nuclear ZNuc                               R   N=           4
  9.00000000E+00  6.00000000E+00  8.00000000E+00  9.00000000E+00
Nuclear QMom                               R   N=           4
  0.00000000E+00  0.00000000E+00  0.00000000E+00  0.00000000E+00
Nuclear GFac                               R   N=           4
  2.62886700E+00  0.00000000E+00  0.00000000E+00  2.62886700E+00
MicOpt                                     I   N=           4
          -1          -1          -1          -1
Number of residues                         I                0
Number of secondary structures             I                0
SymInf integers                            I   N=          26
           1           1           1           1           1           0
           0           0           0           0           0           0
           0           0           0           0           0           0
           0           0           0           0           0           0
           0           0
RotTr to input orientation                 R   N=          12
 -9.96200904E-01 -8.63034524E-02  1.16392752E-02 -8.69047120E-02  9.93812114E-01
 -6.91740754E-02 -5.59729119E-03 -6.99227843E-02 -9.97536703E-01  2.05401419E-03
  3.51849288E-02 -3.55492916E-03
Number of contracted shells                I               16
Number of primitive shells                 I               44
Pure/Cartesian d shells                    I                1
Pure/Cartesian f shells                    I                0
Highest angular momentum                   I                2
Largest degree of contraction              I                6
Shell types                                I   N=          16
           0          -1          -1           2           0          -1
          -1           2           0          -1          -1           2
           0          -1          -1           2
Number of primitives per shell             I   N=          16
           6           3           1           1           6           3
           1           1           6           3           1           1
           6           3           1           1
Shell to atom map                          I   N=          16
           1           1           1           1           2           2
           2           2           3           3           3           3
           4           4           4           4
Primitive exponents                        R   N=          44
  7.00171309E+03  1.05136609E+03  2.39285690E+02  6.73974453E+01  2.15199573E+01
  7.40310130E+00  2.08479528E+01  4.80830834E+00  1.34406986E+00  3.58151393E-01
  8.00000000E-01  3.04752488E+03  4.57369518E+02  1.03948685E+02  2.92101553E+01
  9.28666296E+00  3.16392696E+00  7.86827235E+00  1.88128854E+00  5.44249258E-01
  1.68714478E-01  8.00000000E-01  5.48467166E+03  8.25234946E+02  1.88046958E+02
  5.29645000E+01  1.68975704E+01  5.79963534E+00  1.55396162E+01  3.59993359E+00
  1.01376175E+00  2.70005823E-01  8.00000000E-01  7.00171309E+03  1.05136609E+03
  2.39285690E+02  6.73974453E+01  2.15199573E+01  7.40310130E+00  2.08479528E+01
  4.80830834E+00  1.34406986E+00  3.58151393E-01  8.00000000E-01
Contraction coefficients                   R   N=          44
  1.81961690E-03  1.39160796E-02  6.84053245E-02  2.33185760E-01  4.71267439E-01
  3.56618546E-01 -1.08506975E-01 -1.46451658E-01  1.12868858E+00  1.00000000E+00
  1.00000000E+00  1.83473713E-03  1.40373228E-02  6.88426223E-02  2.32184443E-01
  4.67941348E-01  3.62311985E-01 -1.19332420E-01 -1.60854152E-01  1.14345644E+00
  1.00000000E+00  1.00000000E+00  1.83107443E-03  1.39501722E-02  6.84450781E-02
  2.32714336E-01  4.70192898E-01  3.58520853E-01 -1.10777550E-01 -1.48026263E-01
  1.13076702E+00  1.00000000E+00  1.00000000E+00  1.81961690E-03  1.39160796E-02
  6.84053245E-02  2.33185760E-01  4.71267439E-01  3.56618546E-01 -1.08506975E-01
 -1.46451658E-01  1.12868858E+00  1.00000000E+00  1.00000000E+00
P(S=P) Contraction coefficients            R   N=          44
  0.00000000E+00  0.00000000E+00  0.00000000E+00  0.00000000E+00  0.00000000E+00
  0.00000000E+00  7.16287242E-02  3.45912103E-01  7.22469956E-01  1.00000000E+00
  0.00000000E+00  0.00000000E+00  0.00000000E+00  0.00000000E+00  0.00000000E+00
  0.00000000E+00  0.00000000E+00  6.89990666E-02  3.16423961E-01  7.44308291E-01
  1.00000000E+00  0.00000000E+00  0.00000000E+00  0.00000000E+00  0.00000000E+00
  0.00000000E+00  0.00000000E+00  0.00000000E+00  7.08742682E-02  3.39752839E-01
  7.27158577E-01  1.00000000E+00  0.00000000E+00  0.00000000E+00  0.00000000E+00
  0.00000000E+00  0.00000000E+00  0.00000000E+00  0.00000000E+00  7.16287242E-02
  3.45912103E-01  7.22469956E-01  1.00000000E+00  0.00000000E+00
Coordinates of each shell                  R   N=          48
 -2.20870806E+00 -1.33804019E+00 -4.14203762E-02 -2.20870806E+00 -1.33804019E+00
 -4.14203762E-02 -2.20870806E+00 -1.33804019E+00 -4.14203762E-02 -2.20870806E+00
 -1.33804019E+00 -4.14203762E-02 -2.17880683E-01  1.11833149E-01  1.64560470E-01
 -2.17880683E-01  1.11833149E-01  1.64560470E-01 -2.17880683E-01  1.11833149E-01
  1.64560470E-01 -2.17880683E-01  1.11833149E-01  1.64560470E-01 -2.16378613E-01
  2.50693198E+00 -4.32850199E-02 -2.16378613E-01  2.50693198E+00 -4.32850199E-02
 -2.16378613E-01  2.50693198E+00 -4.32850199E-02 -2.16378613E-01  2.50693198E+00
 -4.32850199E-02  2.54629839E+00 -9.64899220E-01 -2.98110302E-02  2.54629839E+00
 -9.64899220E-01 -2.98110302E-02  2.54629839E+00 -9.64899220E-01 -2.98110302E-02
  2.54629839E+00 -9.64899220E-01 -2.98110302E-02
Num ILSW                                   I              100
ILSW                                       I   N=         100
           0           1           0           0           2           0
           0           0           0           0         402          -1
           5           0           0           0           0           0
           0           0           1           0           0           0
           1           0           0           0           0           0
           0           0      100000           0          -1           0
           0           0           0           0           0           0
           0           0           0           1           0           0
           0 -2000000000           1           0           0           0
           0           0           4          52           0           0
           0           0           5           0           0           0
           0           0           0           0           0           1
           0           0           0           0           0           0
           0           0           0           0           0           0
           0           0           0           0           0           0
           0           0           0           0           0           0
           0           0           0           0
Num RLSW                                   I               52
RLSW                                       R   N=          52
  8.00000000E-01  7.20000000E-01  1.00000000E+00  8.10000000E-01  2.00000000E-01
  0.00000000E+00  0.00000000E+00  1.00000000E+00  0.00000000E+00  0.00000000E+00
  0.00000000E+00  0.00000000E+00  1.00000000E+00  0.00000000E+00  0.00000000E+00
  0.00000000E+00  0.00000000E+00  1.00000000E+00  0.00000000E+00  0.00000000E+00
  0.00000000E+00  0.00000000E+00  1.00000000E+00  0.00000000E+00  0.00000000E+00
  0.00000000E+00  0.00000000E+00  1.00000000E+00  0.00000000E+00  0.00000000E+00
  0.00000000E+00  0.00000000E+00  1.00000000E+00  0.00000000E+00  0.00000000E+00
  0.00000000E+00  0.00000000E+00  0.00000000E+00  1.00000000E+00  1.00000000E+00
  0.00000000E+00  1.00000000E+00  0.00000000E+00  0.00000000E+00  0.00000000E+00
  0.00000000E+00  0.00000000E+00  0.00000000E+00  0.00000000E+00  0.00000000E+00
  0.00000000E+00  0.00000000E+00
MxBond                                     I                3
NBond                                      I   N=           4
           1           3           1           1
IBond                                      I   N=          12
           2           0           0           1           3           4
           2           0           0           2           0           0
RBond                                      R   N=          12
  1.00000000E+00  0.00000000E+00  0.00000000E+00  1.00000000E+00  2.00000000E+00
  1.00000000E+00  2.00000000E+00  0.00000000E+00  0.00000000E+00  1.00000000E+00
  0.00000000E+00  0.00000000E+00
Virial Ratio                               R      2.009463462459427E+00
SCF Energy                                 R     -3.129479170755947E+02
Total Energy                               R     -3.129479170755947E+02
RMS Density                                R      1.807290769497565E-09
Job Status                                 I                1
Nuclear derivative order                   I                0
External E-field                           R   N=          35
  0.00000000E+00  0.00000000E+00  0.00000000E+00  0.00000000E+00  0.00000000E+00
  0.00000000E+00  0.00000000E+00  0.00000000E+00  0.00000000E+00  0.00000000E+00
  0.00000000E+00  0.00000000E+00  0.00000000E+00  0.00000000E+00  0.00000000E+00
  0.00000000E+00  0.00000000E+00  0.00000000E+00  0.00000000E+00  0.00000000E+00
  0.00000000E+00  0.00000000E+00  0.00000000E+00  0.00000000E+00  0.00000000E+00
  0.00000000E+00  0.00000000E+00  0.00000000E+00  0.00000000E+00  0.00000000E+00
  0.00000000E+00  0.00000000E+00  0.00000000E+00  0.00000000E+00  0.00000000E+00
IOpCl                                      I                0
IROHF                                      I                0
Alpha Orbital Energies                     R   N=          60
 -2.48286408E+01 -2.47320320E+01 -1.92181314E+01 -1.04766414E+01 -1.34372333E+00
 -1.18488255E+00 -1.06747040E+00 -7.03885317E-01 -5.88009551E-01 -5.69219077E-01
 -5.45150368E-01 -4.63987471E-01 -4.41585471E-01 -4.24693691E-01 -3.82789268E-01
 -3.42750512E-01 -9.38825812E-02 -2.60932163E-02  1.74384572E-01  2.81860395E-01
  4.66238084E-01  4.74979887E-01  5.02670558E-01  5.48380604E-01  8.33145597E-01
  9.27738814E-01  9.33218197E-01  1.03946768E+00  1.07597075E+00  1.11790488E+00
  1.21712163E+00  1.25453515E+00  1.25969192E+00  1.32845875E+00  1.35525274E+00
  1.39154118E+00  1.51400653E+00  1.60041843E+00  1.71946273E+00  1.74690223E+00
  1.76182756E+00  1.77393376E+00  1.80977625E+00  1.83293154E+00  1.83550978E+00
  1.88438444E+00  1.94617971E+00  1.95364501E+00  2.10102598E+00  2.32017327E+00
  2.52209864E+00  2.54683416E+00  2.64651343E+00  2.80362128E+00  2.94684111E+00
  3.00980800E+00  3.68127216E+00  3.97857936E+00  4.16604180E+00  4.55047878E+00
Alpha MO coefficients                      R   N=        3600
  9.92973850E-01  1.94772738E-02  7.02715343E-04  4.55156607E-04  8.35309349E-05
  1.57348934E-02 -3.17831413E-04 -2.19171316E-04 -2.61238630E-05 -8.39804450E-03
 -8.24220469E-03 -8.07911139E-03 -2.72243598E-04 -3.80751009E-05 -2.83261078E-05
  1.37653288E-05  4.57218837E-04 -5.93118657E-04 -3.69886903E-04 -7.15731697E-05
 -5.62823902E-04  7.76827263E-04  6.36101309E-04  3.65151290E-05  2.50533601E-04
  1.64540745E-04 -4.60521691E-05  1.88293208E-04  2.44428938E-05  1.28989321E-05
  2.42354997E-05  1.57396971E-04  1.40178256E-05 -6.72248754E-06  2.72837033E-06
 -6.13069594E-04 -1.22778456E-04  2.37751512E-04 -3.33976328E-05  5.92910259E-05
 -3.92291647E-05  1.12567283E-04 -3.31862947E-05 -9.47544978E-06  8.35053462E-06
  1.90788550E-05  1.90030280E-04 -3.36486334E-05  2.36607889E-05  3.73706605E-06
 -5.98971406E-04  8.58240935E-05 -1.30509055E-04 -1.70221629E-05  1.11224621E-04
  1.40019510E-04  1.65425319E-04  1.63230727E-05  1.76078189E-06 -7.92555825E-06
  6.13568919E-05  2.64342373E-04  2.07145886E-05  3.54613695E-05  4.24478851E-06
 -8.32898165E-04 -9.82986873E-05 -2.79891634E-04 -3.37967322E-05  1.74348221E-04
  8.88993353E-05  2.44888340E-04 -8.55319593E-05 -9.39393999E-06 -2.97990092E-05
  3.41913770E-05 -2.45777199E-04  1.62067857E-04 -7.59062377E-05 -3.24595351E-05
 -2.91996401E-04 -6.82529114E-04  3.52922248E-04  7.33911212E-06  7.12290171E-04
  2.40192564E-04  1.27084968E-04 -1.94648019E-04 -2.97041340E-05  8.39737111E-06
  3.41189788E-05  1.98054391E-04  5.81644832E-06 -3.40580503E-05  3.30114653E-06
 -6.83333919E-04  9.45267708E-05  2.93490869E-04 -2.94656066E-05  6.15451063E-05
  9.05519204E-06  1.74147554E-04 -6.81683972E-06  1.57712206E-05  1.46910974E-05
  9.93043977E-01  1.95444722E-02 -5.23691737E-04  1.26053856E-04  4.55108043E-05
  1.50639515E-02  5.16854154E-05  4.68192022E-06 -1.05961063E-06 -8.13424471E-03
 -7.96529532E-03 -7.94759272E-03  8.67562646E-05  1.55827524E-05 -6.72785374E-06
  1.51112753E-05  9.32454661E-05  3.17710498E-05 -3.07974519E-05  9.90446211E-06
 -2.47057966E-04 -7.24277618E-05  1.93874208E-04 -3.51505568E-05  1.25336593E-04
 -3.02026055E-05  7.79110657E-05  1.07288278E-07  7.95924027E-06  1.06452426E-05
  2.99142254E-05  6.38063409E-04  3.98770644E-05  1.51587296E-04 -1.19036770E-05
 -2.70247029E-03 -3.05495470E-05 -1.98951201E-03  1.82125718E-04  8.53177044E-06
 -5.31310177E-04  3.16249358E-05 -3.09104524E-05 -3.21241285E-06  5.59418631E-05
  9.92860565E-01  2.57918460E-02 -3.85067093E-05 -1.07130853E-03  1.10584031E-04
  1.18901782E-02  2.98810547E-05 -1.05152460E-03  8.31527897E-05 -7.83842584E-03
 -7.54078110E-03 -7.85609797E-03 -9.36968035E-06  1.36820480E-06 -2.83946058E-05
  1.11230014E-05  7.89178065E-05 -2.08523973E-05 -1.38061349E-05  4.25179734E-06
 -1.25982435E-04  7.66590860E-05  1.19974536E-04 -2.10084007E-05  2.33197245E-05
 -2.67345125E-06  9.38516992E-05  1.95562231E-05  7.74940998E-06  8.16577547E-06
  4.92358357E-05  8.20791745E-04  8.66899501E-05  7.48253658E-05  1.94337542E-05
 -2.91432403E-03 -1.85842286E-03 -1.38077508E-03 -2.40258324E-04 -2.91461407E-04
  2.68569607E-04  7.21521088E-04 -7.61161399E-04 -1.41812135E-04 -9.41893195E-05
  9.93082550E-01  4.55502755E-02 -1.12058433E-03 -1.41743017E-03 -1.41467244E-04
 -4.42853012E-03 -1.02254513E-03 -1.69968104E-04 -2.87911953E-05 -8.03642111E-03
 -8.09550134E-03 -9.23756906E-03  7.22697733E-04  9.31279927E-05  4.09959576E-05
 -1.67484497E-04 -1.42502420E-04 -5.28831047E-05 -1.42179903E-05 -5.36413030E-06
  5.20389249E-04  2.54754163E-04  5.45972028E-04 -5.54886577E-05 -1.23969578E-04
 -1.54389591E-04 -5.66896801E-05  2.98122679E-05 -6.12437405E-06  3.07364793E-05
 -9.16568382E-05 -2.73449150E-04 -9.49295301E-05  9.25558732E-06  5.90039203E-06
  1.54447091E-03  4.04682444E-04 -2.80327988E-05 -1.74119408E-05 -8.20853043E-04
 -2.14835971E-04 -1.22599739E-04  2.62190567E-04  5.92355806E-05 -1.88521911E-05
 -2.16913600E-01  4.94108130E-01  9.16652557E-02  6.46206604E-02  9.93662589E-03
  4.32689045E-01  4.30915922E-02  2.97784806E-02  4.64502195E-03  2.28631770E-02
  1.46783857E-02  9.78137393E-03  1.10949302E-02  1.79106685E-03  1.27420438E-03
 -7.42414977E-02  1.44151085E-01 -9.66280816E-02 -6.79151640E-02 -1.06711394E-02
  2.62577455E-02  8.36806494E-03  2.12590654E-04  2.51519285E-03  7.67393772E-03
 -1.84118722E-03 -1.52996606E-02  2.22515306E-02  2.75966672E-03  2.09072977E-03
 -1.58731627E-02  3.50659076E-02 -5.58063374E-03 -2.14273915E-02  8.80000295E-04
  2.98361029E-02 -6.06396159E-03 -1.27862116E-02 -2.93726738E-04 -1.21399114E-03
  5.84540899E-03 -4.54239591E-04  3.07104099E-03 -3.72369789E-04 -1.03206067E-04
 -1.63234546E-02  3.54280503E-02 -1.02947498E-02  1.87331535E-03  4.39951050E-04
  3.15023429E-02 -1.11201811E-02  2.42132406E-04 -1.96607440E-04  6.55598576E-03
 -3.63921183E-04 -4.36281059E-04 -1.56585883E-03 -3.02541168E-04  4.82528383E-05
  3.15825004E-02 -7.24077789E-02  7.65382985E-04 -4.21289150E-03 -1.24958424E-03
 -7.09430985E-02  5.00788862E-03  2.37369813E-05 -9.88493692E-04  1.23260460E-03
 -1.60649836E-03 -2.00229916E-03  1.01455413E-03 -4.97945633E-05 -5.41185484E-05
 -4.34096835E-02  9.04223581E-02  8.04048827E-02  1.16022875E-02 -4.81814113E-03
  2.93953981E-02  8.92878068E-04 -8.71665903E-03  1.15587652E-03  7.75981041E-04
 -1.43693647E-03 -6.63908540E-03 -1.11351797E-02 -1.50548020E-03 -5.59269041E-04
 -3.21537274E-02  6.98335185E-02  8.13537513E-03 -3.23423388E-02  2.15681916E-03
  6.51812363E-02  5.69899301E-03 -1.39894950E-02  6.44596976E-04 -1.63807264E-03
  3.90197932E-03 -1.49475493E-03 -2.35485487E-03  1.42525245E-04 -4.70868597E-04
 -2.23933980E-01  4.98804547E-01 -5.52176261E-02  1.92449132E-02  4.05960453E-03
  4.91018696E-01 -3.92427736E-02  1.31196152E-02  2.85404549E-03  2.26930643E-02
  6.22328371E-03  5.44650964E-03 -6.91083292E-03 -1.64626442E-03  5.67500345E-04
  3.38819210E-02 -7.75440966E-02  1.39942255E-03  2.50329843E-02 -1.28364384E-03
 -8.00686245E-02  5.12426015E-03  2.11391350E-02 -9.09284307E-04 -7.35240519E-04
  3.14913516E-03 -1.69235387E-03  4.95908313E-03 -1.65409815E-04  3.92054575E-04
 -8.71693138E-02  1.90171367E-01 -2.39641486E-03  2.13575366E-01 -1.35675389E-02
  3.28971140E-02 -4.17956001E-04 -1.18824802E-02  3.03082168E-03 -2.43979695E-02
  2.24686916E-02 -1.33654713E-02 -3.84625234E-03 -2.16596394E-04 -4.74900149E-03
 -1.94990397E-01  4.34733566E-01 -3.32943380E-03 -1.50702832E-01  1.32369459E-02
  4.02520352E-01 -3.11029405E-03 -5.70193011E-02  4.67593645E-03 -9.28803850E-03
  1.07777096E-02 -5.17012270E-03  4.60097806E-04 -2.71286934E-05 -2.01193199E-03
  5.52035676E-02 -1.23018887E-01 -3.43234465E-03  1.23103922E-02 -4.66614146E-04
 -1.32406472E-01 -1.82595262E-03  9.62165105E-03 -7.23326539E-04 -2.08392731E-04
 -8.34025999E-05 -1.19392547E-03 -2.20493450E-03  1.01219337E-04  1.02411921E-04
  8.43069434E-02 -1.76320997E-01  4.05891541E-01  2.53751970E-01  4.45983606E-02
 -3.02329072E-01  2.27806057E-01  1.39303458E-01  2.49334265E-02  2.18693354E-02
  6.34428079E-03 -6.43657193E-04  1.53290207E-02  3.04849253E-03  1.80545953E-03
 -1.19300913E-01  2.90081065E-01 -1.21321421E-01 -1.81848747E-01 -5.78864353E-03
  1.64743229E-01  8.99029544E-03 -1.66374650E-02  4.79020326E-03  3.80513243E-03
 -1.13559395E-02 -1.35163069E-02  1.56147948E-02  1.64283239E-03  2.47211946E-03
  5.55571969E-02 -1.24116397E-01 -2.17301223E-02 -5.36825266E-02  1.20340898E-03
 -1.64381681E-01 -1.67697171E-02 -2.93892169E-02 -4.09286034E-04  1.00895336E-03
  1.09304087E-02  1.27779455E-03  4.33356538E-03 -4.99224808E-04 -1.50454759E-04
  2.96375372E-02 -5.98156027E-02 -1.01361875E-01  1.07256769E-02  6.30641237E-03
 -1.08398783E-01 -6.38676393E-02  1.72358443E-03  2.98277926E-03  1.44253195E-02
  4.90827655E-04  1.40611787E-03 -1.81014908E-03 -7.61638200E-04  1.65835315E-05
  1.12070658E-02 -1.70762607E-02 -6.74480701E-02  3.97088620E-01  3.97051615E-02
 -5.09200600E-02 -5.45086256E-02  2.41938496E-01  2.51303977E-02 -1.13922829E-02
  1.82488477E-02  1.91924962E-03  8.59592470E-03  7.72392540E-04  2.68117139E-03
  4.84446901E-02 -1.15814932E-01 -3.12179411E-01  7.38603638E-02  4.06275381E-03
 -1.00411899E-01 -7.49448783E-02  7.09151558E-02  1.05494506E-03  1.31563155E-02
 -6.12520184E-03  5.38656337E-04  7.40372138E-03  2.64127037E-03 -1.02441969E-03
 -1.24530362E-02  3.36736729E-02 -1.31360867E-01  3.50804919E-02 -1.25982882E-04
  8.63115329E-03 -7.40382995E-02  2.82114756E-02 -2.67077923E-03  3.15711148E-03
 -1.89093852E-03  1.21205043E-03  1.26885877E-02 -1.04762847E-03  2.04545561E-05
 -5.18729706E-02  9.74592265E-02  3.12270852E-01 -1.21100234E-01 -2.25887270E-02
  2.12524058E-01  1.87469531E-01 -7.46467431E-02 -1.33749111E-02 -2.32260184E-02
 -8.26331174E-03 -5.27507570E-03  7.08696629E-03  1.55560028E-03 -6.76582905E-04
 -4.27866931E-04  5.99480366E-05 -4.26356526E-02 -5.13312882E-02  5.63989665E-01
  1.61240988E-03 -2.63220677E-02 -3.09986629E-02  3.62147197E-01 -2.82499206E-03
 -2.23232374E-03  4.21623603E-03 -2.48523293E-03  2.33025805E-02  1.57049584E-02
 -6.90659637E-03  1.68509498E-02  5.87693948E-03 -5.03788942E-03  2.69797944E-01
  8.17974353E-03 -7.97138012E-03 -1.44456884E-02  1.31773456E-01  5.46060310E-04
  1.53133680E-03 -4.13322554E-03  1.27892025E-03 -1.81757154E-02 -9.04600655E-03
 -3.45310009E-03  3.59316708E-03  5.58687079E-03  1.95015415E-02  1.23716568E-01
  3.08644633E-02  6.75382522E-03  2.08187499E-03  5.76011408E-02 -1.55602023E-03
 -3.24784756E-03  2.45452252E-05 -8.01118608E-04 -1.03089278E-03 -1.08901784E-02
  3.21402292E-04 -3.83263725E-03  5.93801423E-04  3.22816312E-04  9.15424830E-02
  6.68382329E-03 -1.56308786E-03  3.83634428E-03  5.40143277E-02 -1.57703951E-03
 -1.05227778E-03 -1.03785024E-03 -5.58796715E-04 -4.91272995E-03  9.63897609E-04
  6.06666696E-03 -5.22440138E-03  3.48162580E-01 -2.29507785E-01  1.41041850E-02
 -3.72561020E-02  2.11608567E-01 -1.52382945E-01  8.05186872E-03  1.68899054E-02
 -9.63980139E-03  1.57717430E-03 -4.68767518E-03  1.32520484E-03 -1.18556392E-03
  6.50234726E-02 -1.69063614E-01 -9.63428604E-02 -2.15227849E-01 -8.85187886E-03
 -1.48053788E-01  6.37270388E-03 -8.56054301E-02 -5.59289674E-03 -4.57610725E-03
  1.85192570E-02  3.28738634E-03  1.62327454E-02  7.34936559E-04  2.07560145E-03
 -9.49824234E-02  1.99885714E-01 -2.67756796E-02  3.19380142E-01 -3.62454345E-02
  4.04563544E-01 -1.92101610E-02  1.35984973E-01 -1.45740925E-02 -6.38859708E-03
 -2.68845889E-02 -2.77369643E-03  3.97023171E-03 -4.98612088E-04  3.17549397E-03
 -1.67699915E-02  3.51026342E-02  1.22091887E-01 -1.38795367E-01 -1.82937465E-02
  5.50294734E-02  8.22383182E-02 -8.99622946E-02 -1.32513608E-02 -6.71729069E-03
 -1.89160454E-03 -4.30463044E-04  8.05393868E-03  1.30447645E-03 -7.65362653E-04
 -2.12750585E-04  5.67325510E-03 -2.09300104E-01  3.32320027E-01  1.31263401E-02
 -1.22227656E-02 -1.44603705E-01  2.14044080E-01  8.48725577E-03 -5.81749711E-03
  8.59933801E-03  2.09791014E-03  1.43531998E-03 -5.06487087E-04  7.93876489E-04
  2.67468914E-02 -7.88955396E-02  9.65099596E-02 -2.41359051E-01 -5.84768532E-03
  8.64218360E-03 -1.52412849E-03  2.41996303E-03 -6.69072194E-03  3.32638983E-02
 -1.94884634E-02  2.77978409E-03 -8.12799179E-03 -2.16212376E-04 -1.81824292E-04
 -5.18743048E-02  1.12218130E-01  4.16547303E-02  3.67079609E-01 -5.59858277E-02
  1.95551074E-01  2.55885592E-02  2.02740256E-01 -3.45300123E-02  2.86927322E-03
 -2.02426542E-02  1.57260229E-03 -5.22659009E-03  6.24689178E-04  4.05290627E-03
  1.51844621E-02 -2.98459954E-02 -3.25830437E-01  5.52619854E-02  2.35446630E-02
 -4.90371041E-02 -2.22994989E-01  3.72623132E-02  1.74946390E-02  1.42606950E-02
 -1.21241167E-03 -3.00769599E-04 -2.62604600E-03 -1.59836967E-03  1.27238672E-05
 -7.51832334E-04 -3.48206567E-03  1.20861148E-02  1.44788005E-02 -2.74289696E-01
  1.61260047E-02  1.05311628E-02  1.51346364E-02 -2.02386673E-01 -1.70707883E-03
 -1.03863449E-03 -3.70011767E-03  8.04120014E-04 -5.77080933E-03 -4.23661254E-03
 -4.72284095E-03  9.83103962E-03 -1.51567052E-03 -5.84764436E-03  1.88836320E-01
  1.22894824E-02  1.35834987E-02 -5.57586668E-03  1.18629169E-01 -1.12351546E-03
  5.65790803E-04 -1.68454992E-03 -3.89977453E-03  2.03394265E-02  1.22373040E-02
 -2.44617638E-03  3.20470409E-03 -2.15014828E-02  3.67224438E-02  2.17671145E-01
  1.91222372E-02 -2.15463342E-02  1.72968292E-02  1.30222088E-01 -9.71592940E-04
 -3.19346137E-03  1.51952245E-03  2.14416421E-03  1.60196004E-03 -1.42336194E-02
  3.81074826E-04  6.15591416E-04  1.96879581E-02 -6.03839943E-02  5.21153217E-01
 -6.40759274E-03  1.41820043E-02 -4.32542368E-02  3.59524481E-01 -1.90164009E-04
 -5.68274947E-04  2.63548010E-03  2.08983363E-03 -1.59491222E-02  5.38696589E-03
 -8.73893684E-03  4.48299743E-05  1.01777120E-01  5.72853053E-02 -6.74566083E-03
  1.12692423E-01  8.38937263E-02  4.18691920E-02 -1.36333097E-03 -7.44498575E-03
 -1.17428886E-02 -8.33090562E-03  2.01334270E-03  2.18008906E-04 -3.71446037E-04
  1.34889343E-02 -3.27177384E-02  1.43891004E-02 -4.06109633E-02  5.44068272E-03
 -1.82325052E-02  7.29578667E-02  1.30842303E-01  5.94186490E-03  1.42014839E-02
 -8.77451667E-03 -3.31912683E-05  2.49407550E-02  1.47143344E-03 -2.37268499E-04
 -4.27126762E-03  2.00886957E-02  1.51935814E-01  9.75421206E-02 -6.12720445E-03
 -5.83687582E-02  9.81387495E-02  7.97626345E-02 -1.09123927E-02  7.59213103E-03
 -2.44348335E-03  3.73684701E-03 -7.61140444E-03  6.50254981E-04  9.65672114E-04
 -1.09200064E-03  8.18725836E-03  2.49817931E-01  5.72542837E-01  5.36634619E-02
 -1.09518390E-02  1.73731786E-01  3.82672377E-01  3.65382325E-02 -7.14957844E-03
  9.47102510E-03  3.48428208E-03 -1.02370306E-02 -8.57959258E-04  1.36945132E-03
 -3.98409611E-04  1.63231591E-03  9.42247319E-03  2.33003396E-02 -1.78483876E-01
  1.29290596E-03  9.20601433E-03  1.10315153E-02 -1.26734403E-01  7.36458402E-04
 -1.55165322E-04  2.51384065E-05 -2.22278980E-04 -1.86596792E-03  1.46148534E-03
 -4.30378285E-03  6.30340070E-03 -4.29407526E-04 -8.26472067E-03  2.26941739E-01
  4.25381416E-02 -3.45437309E-03  2.69349601E-02  7.15594672E-02 -4.69999121E-05
  1.24304413E-03 -1.81454641E-03  8.24469741E-04 -5.67001723E-03  3.38198771E-02
 -1.89294976E-04  3.85291567E-03  9.80024235E-03  7.64259555E-02  4.71412410E-01
 -2.17783099E-02  8.50701288E-03  5.77133866E-02  3.20886592E-01  1.92973177E-03
 -4.85501645E-03  6.21197931E-03 -8.94958698E-04 -1.64929191E-03 -2.77796401E-02
 -3.40831918E-04  4.00928400E-04 -2.20914074E-02  2.80533959E-02 -3.84237297E-01
  2.62304467E-03 -1.69605385E-02  1.65504494E-02 -2.72008606E-01  9.75767813E-04
 -3.02156657E-04 -1.14468806E-03  3.33452316E-05  6.78035526E-03  7.36014241E-05
 -9.26825597E-03  1.76116455E-02  2.32260310E-02  1.41607240E-01  6.63042205E-03
  7.21543653E-02  2.31416000E-02  1.09271759E-01  6.57947805E-03 -4.21697253E-03
 -8.86372508E-04 -1.58594798E-03  3.83433725E-03 -3.48614498E-04  4.53260087E-04
 -2.71262072E-03  1.20014211E-02  7.42883156E-02  1.14705849E-02 -4.02463912E-03
 -4.16377854E-02  9.52295151E-02 -1.44894210E-02  1.83767676E-03 -6.91868023E-03
  2.45209907E-03 -3.75995657E-04  3.92520938E-02 -7.49873539E-04  2.64278287E-04
 -1.99006404E-03  6.80935196E-03  5.99800113E-01 -3.13819576E-02  5.27845829E-03
  1.64345955E-02  3.90505906E-01 -2.53079459E-02  4.12723732E-03 -2.88379656E-03
  3.46479532E-03  1.09519918E-03 -2.51388218E-02  2.68017567E-03 -2.90444824E-04
  7.19147895E-03 -1.67239217E-02  1.22148091E-01 -2.64763634E-01 -3.60589529E-03
 -4.68508754E-02  1.02140538E-01 -1.86386445E-01 -5.08125782E-03 -6.21754448E-03
  2.00263814E-03  3.35219932E-04  5.52426032E-03  6.66756049E-04 -5.98217517E-04
  2.51933615E-02 -5.35703548E-02 -1.43771552E-01 -3.77898404E-02 -2.01691654E-01
 -1.87413756E-01 -1.39891958E-01 -5.09166138E-02 -1.67582266E-01  4.64952120E-03
 -1.28738338E-03  8.38157493E-03 -2.53036448E-03  1.12071866E-02  5.34184027E-03
 -8.73257403E-02  1.77938614E-01  9.73590320E-02 -1.51682767E-01  4.97744816E-01
  5.91885381E-01  1.08357272E-02 -5.94661980E-02  3.29488342E-01 -2.22243454E-02
 -1.58964371E-02  1.49095213E-02 -5.20716808E-03  4.03514560E-04 -2.02342908E-02
  1.48904127E-02 -3.19037282E-02 -3.62001549E-02  7.64748678E-02 -3.56496218E-01
 -1.26365051E-01 -2.96824051E-02  9.30623922E-02 -3.23455649E-01  2.11509549E-03
 -2.88739360E-03  7.34162067E-03 -1.38014329E-03  8.81248024E-04 -1.68728452E-03
  2.45226207E-02 -5.69512625E-02  2.10217404E-01 -4.41121608E-02 -1.53314971E-01