CF2O Time step 10                                                       
SP        RB3LYP                                                      6-31G(d)            
Number of atoms                            I                4
Info1-9                                    I   N=           9
          13          13           0           0           0         110
           1          18        -502
Full Title                                 C   N=           2
CF2O Time step 10       
Route                                      C   N=           4
# B3LYP/6-31G(d) pop=full density=current       
Charge                                     I                0
Multiplicity                               I                1
Number of electrons                        I               32
Number of alpha electrons                  I               16
Number of beta electrons                   I               16
Number of basis functions                  I               60
Number of independent functions            I               60
Number of point charges in /Mol/           I                0
Number of translation vectors              I                0
Atomic numbers                             I   N=           4
           9           6           8           9
Nuclear charges                            R   N=           4
  9.00000000E+00  6.00000000E+00  8.00000000E+00  9.00000000E+00
Current cartesian coordinates              R   N=          12
 -2.18323508E+00 -1.20195144E+00 -9.64280243E-03 -6.05756270E-02  1.11989241E-01
  4.22721650E-02 -8.06183784E-02  2.46557471E+00 -1.09881463E-02  2.29527961E+00
 -1.06433002E+00 -8.77139977E-03
Number of symbols in /Mol/                 I                0
Int Atom Types                             I   N=           4
           0           0           0           0
Force Field                                I                0
Atom Types                                 C   N=           4
                                                
MM charges                                 R   N=           4
  0.00000000E+00  0.00000000E+00  0.00000000E+00  0.00000000E+00
Integer atomic weights                     I   N=           4
          19          12          16          19
Real atomic weights                        R   N=           4
  1.89984032E+01  1.20000000E+01  1.59949146E+01  1.89984032E+01
Atom fragment info                         I   N=           4
           0           0           0           0
Atom residue num                           I   N=           4
           0           0           0           0
Nuclear spins                              I   N=           4
           1           0           0           1
Nuclear ZEff                               R   N=           4
 -6.75000000E+00 -3.60000000E+00 -5.60000000E+00 -6.75000000E+00
Nuclear ZNuc                               R   N=           4
  9.00000000E+00  6.00000000E+00  8.00000000E+00  9.00000000E+00
Nuclear QMom                               R   N=           4
  0.00000000E+00  0.00000000E+00  0.00000000E+00  0.00000000E+00
Nuclear GFac                               R   N=           4
  2.62886700E+00  0.00000000E+00  0.00000000E+00  2.62886700E+00
MicOpt                                     I   N=           4
          -1          -1          -1          -1
Number of residues                         I                0
Number of secondary structures             I                0
SymInf integers                            I   N=          26
           1           1           1           1           1           0
           0           0           0           0           0           0
           0           0           0           0           0           0
           0           0           0           0           0           0
           0           0
RotTr to input orientation                 R   N=          12
 -9.99530587E-01 -3.01270232E-02  5.56481994E-03 -3.04419743E-02  9.97102208E-01
 -6.97170861E-02 -3.44832598E-03 -6.98537642E-02 -9.97551282E-01  6.50065787E-04
  3.44089600E-02 -2.68972987E-03
Number of contracted shells                I               16
Number of primitive shells                 I               44
Pure/Cartesian d shells                    I                1
Pure/Cartesian f shells                    I                0
Highest angular momentum                   I                2
Largest degree of contraction              I                6
Shell types                                I   N=          16
           0          -1          -1           2           0          -1
          -1           2           0          -1          -1           2
           0          -1          -1           2
Number of primitives per shell             I   N=          16
           6           3           1           1           6           3
           1           1           6           3           1           1
           6           3           1           1
Shell to atom map                          I   N=          16
           1           1           1           1           2           2
           2           2           3           3           3           3
           4           4           4           4
Primitive exponents                        R   N=          44
  7.00171309E+03  1.05136609E+03  2.39285690E+02  6.73974453E+01  2.15199573E+01
  7.40310130E+00  2.08479528E+01  4.80830834E+00  1.34406986E+00  3.58151393E-01
  8.00000000E-01  3.04752488E+03  4.57369518E+02  1.03948685E+02  2.92101553E+01
  9.28666296E+00  3.16392696E+00  7.86827235E+00  1.88128854E+00  5.44249258E-01
  1.68714478E-01  8.00000000E-01  5.48467166E+03  8.25234946E+02  1.88046958E+02
  5.29645000E+01  1.68975704E+01  5.79963534E+00  1.55396162E+01  3.59993359E+00
  1.01376175E+00  2.70005823E-01  8.00000000E-01  7.00171309E+03  1.05136609E+03
  2.39285690E+02  6.73974453E+01  2.15199573E+01  7.40310130E+00  2.08479528E+01
  4.80830834E+00  1.34406986E+00  3.58151393E-01  8.00000000E-01
Contraction coefficients                   R   N=          44
  1.81961690E-03  1.39160796E-02  6.84053245E-02  2.33185760E-01  4.71267439E-01
  3.56618546E-01 -1.08506975E-01 -1.46451658E-01  1.12868858E+00  1.00000000E+00
  1.00000000E+00  1.83473713E-03  1.40373228E-02  6.88426223E-02  2.32184443E-01
  4.67941348E-01  3.62311985E-01 -1.19332420E-01 -1.60854152E-01  1.14345644E+00
  1.00000000E+00  1.00000000E+00  1.83107443E-03  1.39501722E-02  6.84450781E-02
  2.32714336E-01  4.70192898E-01  3.58520853E-01 -1.10777550E-01 -1.48026263E-01
  1.13076702E+00  1.00000000E+00  1.00000000E+00  1.81961690E-03  1.39160796E-02
  6.84053245E-02  2.33185760E-01  4.71267439E-01  3.56618546E-01 -1.08506975E-01
 -1.46451658E-01  1.12868858E+00  1.00000000E+00  1.00000000E+00
P(S=P) Contraction coefficients            R   N=          44
  0.00000000E+00  0.00000000E+00  0.00000000E+00  0.00000000E+00  0.00000000E+00
  0.00000000E+00  7.16287242E-02  3.45912103E-01  7.22469956E-01  1.00000000E+00
  0.00000000E+00  0.00000000E+00  0.00000000E+00  0.00000000E+00  0.00000000E+00
  0.00000000E+00  0.00000000E+00  6.89990666E-02  3.16423961E-01  7.44308291E-01
  1.00000000E+00  0.00000000E+00  0.00000000E+00  0.00000000E+00  0.00000000E+00
  0.00000000E+00  0.00000000E+00  0.00000000E+00  7.08742682E-02  3.39752839E-01
  7.27158577E-01  1.00000000E+00  0.00000000E+00  0.00000000E+00  0.00000000E+00
  0.00000000E+00  0.00000000E+00  0.00000000E+00  0.00000000E+00  7.16287242E-02
  3.45912103E-01  7.22469956E-01  1.00000000E+00  0.00000000E+00
Coordinates of each shell                  R   N=          48
 -2.18323508E+00 -1.20195144E+00 -9.64280243E-03 -2.18323508E+00 -1.20195144E+00
 -9.64280243E-03 -2.18323508E+00 -1.20195144E+00 -9.64280243E-03 -2.18323508E+00
 -1.20195144E+00 -9.64280243E-03 -6.05756270E-02  1.11989241E-01  4.22721650E-02
 -6.05756270E-02  1.11989241E-01  4.22721650E-02 -6.05756270E-02  1.11989241E-01
  4.22721650E-02 -6.05756270E-02  1.11989241E-01  4.22721650E-02 -8.06183784E-02
  2.46557471E+00 -1.09881463E-02 -8.06183784E-02  2.46557471E+00 -1.09881463E-02
 -8.06183784E-02  2.46557471E+00 -1.09881463E-02 -8.06183784E-02  2.46557471E+00
 -1.09881463E-02  2.29527961E+00 -1.06433002E+00 -8.77139977E-03  2.29527961E+00
 -1.06433002E+00 -8.77139977E-03  2.29527961E+00 -1.06433002E+00 -8.77139977E-03
  2.29527961E+00 -1.06433002E+00 -8.77139977E-03
Num ILSW                                   I              100
ILSW                                       I   N=         100
           0           1           0           0           2           0
           0           0           0           0         402          -1
           5           0           0           0           0           0
           0           0           1           0           0           0
           1           0           0           0           0           0
           0           0      100000           0          -1           0
           0           0           0           0           0           0
           0           0           0           1           0           0
           0 -2000000000           1           0           0           0
           0           0           4          52           0           0
           0           0           5           0           0           0
           0           0           0           0           0           1
           0           0           0           0           0           0
           0           0           0           0           0           0
           0           0           0           0           0           0
           0           0           0           0           0           0
           0           0           0           0
Num RLSW                                   I               52
RLSW                                       R   N=          52
  8.00000000E-01  7.20000000E-01  1.00000000E+00  8.10000000E-01  2.00000000E-01
  0.00000000E+00  0.00000000E+00  1.00000000E+00  0.00000000E+00  0.00000000E+00
  0.00000000E+00  0.00000000E+00  1.00000000E+00  0.00000000E+00  0.00000000E+00
  0.00000000E+00  0.00000000E+00  1.00000000E+00  0.00000000E+00  0.00000000E+00
  0.00000000E+00  0.00000000E+00  1.00000000E+00  0.00000000E+00  0.00000000E+00
  0.00000000E+00  0.00000000E+00  1.00000000E+00  0.00000000E+00  0.00000000E+00
  0.00000000E+00  0.00000000E+00  1.00000000E+00  0.00000000E+00  0.00000000E+00
  0.00000000E+00  0.00000000E+00  0.00000000E+00  1.00000000E+00  1.00000000E+00
  0.00000000E+00  1.00000000E+00  0.00000000E+00  0.00000000E+00  0.00000000E+00
  0.00000000E+00  0.00000000E+00  0.00000000E+00  0.00000000E+00  0.00000000E+00
  0.00000000E+00  0.00000000E+00
MxBond                                     I                3
NBond                                      I   N=           4
           1           3           1           1
IBond                                      I   N=          12
           2           0           0           1           3           4
           2           0           0           2           0           0
RBond                                      R   N=          12
  1.00000000E+00  0.00000000E+00  0.00000000E+00  1.00000000E+00  2.00000000E+00
  1.00000000E+00  2.00000000E+00  0.00000000E+00  0.00000000E+00  1.00000000E+00
  0.00000000E+00  0.00000000E+00
Virial Ratio                               R      2.008666739649121E+00
SCF Energy                                 R     -3.129861258043843E+02
Total Energy                               R     -3.129861258043843E+02
RMS Density                                R      3.889532181996686E-09
Job Status                                 I                1
Nuclear derivative order                   I                0
External E-field                           R   N=          35
  0.00000000E+00  0.00000000E+00  0.00000000E+00  0.00000000E+00  0.00000000E+00
  0.00000000E+00  0.00000000E+00  0.00000000E+00  0.00000000E+00  0.00000000E+00
  0.00000000E+00  0.00000000E+00  0.00000000E+00  0.00000000E+00  0.00000000E+00
  0.00000000E+00  0.00000000E+00  0.00000000E+00  0.00000000E+00  0.00000000E+00
  0.00000000E+00  0.00000000E+00  0.00000000E+00  0.00000000E+00  0.00000000E+00
  0.00000000E+00  0.00000000E+00  0.00000000E+00  0.00000000E+00  0.00000000E+00
  0.00000000E+00  0.00000000E+00  0.00000000E+00  0.00000000E+00  0.00000000E+00
IOpCl                                      I                0
IROHF                                      I                0
Alpha Orbital Energies                     R   N=          60
 -2.48006123E+01 -2.47721542E+01 -1.91953814E+01 -1.04641663E+01 -1.32373040E+00
 -1.25807811E+00 -1.06657170E+00 -6.92208467E-01 -6.17535894E-01 -5.62168145E-01
 -5.37270358E-01 -4.78869904E-01 -4.73076015E-01 -4.53353623E-01 -3.78444707E-01
 -3.33615882E-01 -4.85897661E-02  2.65903675E-02  2.37313209E-01  3.00097279E-01
  4.65851048E-01  4.74599473E-01  4.78670000E-01  5.65542145E-01  8.39822844E-01
  9.42205362E-01  9.48906091E-01  1.04118763E+00  1.08987400E+00  1.11800332E+00
  1.22321452E+00  1.26237326E+00  1.27515114E+00  1.33503205E+00  1.35705997E+00
  1.36971964E+00  1.57668480E+00  1.62996820E+00  1.74888473E+00  1.75900223E+00
  1.77626146E+00  1.79666882E+00  1.79871507E+00  1.83643158E+00  1.88428843E+00
  1.91666998E+00  1.94152186E+00  2.05089244E+00  2.10595954E+00  2.50015722E+00
  2.57365985E+00  2.66042093E+00  2.71630698E+00  2.92358637E+00  2.99817002E+00
  3.04328187E+00  3.72503448E+00  4.12826194E+00  4.36034765E+00  4.60342025E+00
Alpha MO coefficients                      R   N=        3600
  9.92978973E-01  1.95251344E-02  7.24531774E-04  3.69925089E-04  2.10078037E-05
  1.55896187E-02 -3.66182172E-04 -1.83045878E-04 -7.09080557E-06 -8.42356848E-03
 -8.18452261E-03 -8.05021400E-03 -2.64951658E-04 -1.05046147E-05 -6.48121586E-06
  2.07946546E-05  4.13732464E-04 -5.75165794E-04 -3.33017904E-04 -1.96364698E-05
 -4.89219298E-04  8.18587759E-04  4.79616761E-04  6.36548087E-06  3.80582281E-04
  2.09339754E-04 -3.05772598E-05  1.77237534E-04  6.70525145E-06  3.83996525E-06
  1.91990716E-05  1.44532668E-04  1.94593856E-05  1.42082061E-05  6.04652321E-08
 -5.12732330E-04 -1.24693379E-04  2.38554775E-04 -6.83203694E-06  3.24037730E-05
 -8.08535035E-05  1.02973474E-04 -4.15414704E-05 -2.66322841E-06  3.02272210E-06
  3.88217259E-05  2.67844579E-04 -3.63264833E-05  2.70386240E-05  1.11948772E-06
 -8.05474088E-04  1.63875442E-04 -1.73563050E-04 -6.38838855E-06  6.77916584E-05
  1.69092785E-04  2.16163482E-04  3.32079474E-05  1.49798993E-06 -3.21457599E-06
  5.25974657E-05  3.14440076E-04  3.23666848E-05  3.10433411E-05  1.13231848E-06
 -9.63232352E-04 -1.93748925E-04 -2.46822225E-04 -8.52519652E-06  1.00062660E-04
  1.55271665E-04  2.62924078E-04 -7.70490093E-05 -2.71924142E-06 -5.98354194E-06
  1.91279169E-05  1.40086083E-04  4.70444578E-04 -2.40893030E-04 -1.75989649E-05
 -3.28055488E-04 -7.83370846E-04  3.76550928E-04  2.44281648E-06  6.36265378E-04
  2.74190011E-04  2.64364542E-05 -2.37371695E-04 -9.35076513E-06  4.75305452E-06
  2.36346839E-05  1.69205551E-04 -1.09246896E-05  7.58690111E-06 -5.58309678E-08
 -5.86123640E-04  1.18508393E-04  2.90951948E-04 -7.34489166E-06  3.46599832E-05
 -7.67932334E-05  1.31146469E-04  1.45362686E-05  3.86869315E-06  4.80356529E-06
  9.93006082E-01  1.95755818E-02 -6.78648756E-04  2.54675560E-04  1.78123725E-05
  1.52946299E-02  3.38348616E-04 -1.24664106E-04 -5.68473596E-06 -8.37823590E-03
 -8.07157783E-03 -7.98501297E-03  2.26315001E-04  9.90459077E-06 -4.96876356E-06
  8.74409790E-06  6.07019559E-05  1.96898767E-05 -4.07404241E-05  2.30454373E-06
 -1.22596595E-04 -6.74992459E-05  1.91982094E-04 -9.05209619E-06  9.09451668E-05
 -7.48668833E-05  5.55315697E-05 -2.54739367E-05  1.55220701E-06  2.34662903E-06
  3.59430207E-05  6.46926312E-04  1.91471200E-05  5.24508123E-05 -1.25738899E-06
 -2.98186030E-03  5.87145346E-06 -2.15722032E-03  5.33468573E-05  1.51345830E-05
 -6.78947887E-04  4.06718638E-05 -1.02324970E-05 -3.45544057E-07  1.86091959E-05
  9.92829519E-01  2.58042133E-02 -1.30578904E-06 -1.15907357E-03  3.24708251E-05
  1.23676899E-02  2.17828540E-05 -1.20179157E-03  2.39278256E-05 -7.91447418E-03
 -7.51501381E-03 -7.93144507E-03 -9.31506533E-06  2.58325581E-07 -9.93600048E-06
  6.66974339E-06  5.50707853E-05 -1.25077153E-05 -3.49669276E-05  1.72407596E-06
 -7.76516615E-05  7.95370550E-05  1.68608683E-04 -8.22649036E-06  3.72979335E-05
 -6.30881245E-05  6.07503323E-05  3.90785840E-05  5.52739331E-07  2.03532352E-06
  3.71079523E-05  7.11072719E-04  1.12720544E-04  5.94485531E-05  3.58563284E-06
 -2.39656128E-03 -1.85344521E-03 -1.08019369E-03 -4.86148817E-05 -4.16991573E-04
  2.87569716E-04  6.50387845E-04 -6.64974167E-04 -3.44603891E-05 -2.01004592E-05
  9.93022133E-01  4.58906102E-02 -4.06598146E-04 -1.51462847E-03 -4.20840904E-05
 -3.58356798E-03 -3.64187606E-04 -6.74268429E-05 -2.57107833E-05 -7.66199686E-03
 -8.16316821E-03 -9.44277769E-03  2.59475036E-04  8.14120560E-06  1.26603290E-05
 -1.82633440E-04 -3.92659095E-05 -1.93835086E-05 -7.32145146E-05 -6.22574745E-07
 -4.89984632E-05  8.43231620E-05  7.72180483E-04 -1.66803345E-05 -1.00811199E-04
 -5.84198271E-05 -1.75420737E-05  1.47906840E-05 -6.20748407E-07  7.24870589E-06
 -4.90915545E-06  3.25500175E-04 -1.16780422E-04  3.48149311E-05  2.53601338E-06
 -7.37737037E-04  1.36274372E-03 -5.56462769E-04 -2.75322432E-05 -6.27164553E-04
  1.34309243E-04  3.58085814E-04  4.94786759E-04  2.75966286E-05 -1.27632529E-05
 -2.01230502E-01  4.55807444E-01  9.10403667E-02  5.18482099E-02  2.24534246E-03
  4.05597114E-01  4.70315735E-02  2.43095940E-02  1.05365916E-03  2.42925771E-02
  1.14501210E-02  8.24582330E-03  1.04020499E-02  4.80692991E-04  2.66770916E-04
 -8.69083445E-02  1.67566770E-01 -6.75966314E-02 -6.07099516E-02 -3.03363858E-03
  3.02252964E-02  5.07528025E-03 -4.60656681E-04  8.23884209E-04  9.40234630E-03
 -5.64075606E-03 -1.75377740E-02  1.47962889E-02  5.03651111E-04  4.26292041E-04
 -2.31838545E-02  5.14957484E-02 -4.24138155E-03 -3.09919402E-02  3.79632342E-04
  4.17493992E-02 -3.86454426E-03 -1.56549412E-02 -7.13365427E-05 -1.56663232E-03
  7.43649665E-03 -3.57568856E-04  1.94878249E-03 -6.84573547E-05 -8.10455550E-05
 -7.03819285E-02  1.57757849E-01 -3.74943511E-02  1.33920558E-02  6.45944136E-04
  1.42574933E-01 -2.72406533E-02  7.12153666E-03  2.50774599E-04  1.43579548E-02
  2.52456506E-03  1.98996938E-03 -4.88399495E-03 -2.40231426E-04  7.09431832E-05
  8.62638044E-02 -1.95928112E-01 -2.34253132E-02 -1.96118959E-02 -9.25277532E-04
 -1.81084354E-01 -5.03376735E-03 -8.26854896E-03 -5.62923100E-04 -3.24064979E-03
 -5.18399007E-03 -3.96681463E-03 -1.60917456E-03 -1.12446947E-04 -1.10273036E-04
 -3.41535612E-02  6.73108911E-02  1.32786014E-01 -7.69866991E-03 -1.04268571E-03
  1.52081073E-02 -7.31931494E-03 -2.47616610E-03  3.19775622E-04  3.32715327E-03
 -3.20496190E-03 -5.97658170E-03 -2.36277864E-02 -8.48162288E-04  7.81885932E-06
 -1.47458924E-02  3.22651971E-02  1.11287455E-02 -1.75239680E-02  2.65386439E-04
  2.76373787E-02  8.64185697E-03 -7.64587844E-03  1.72444335E-05 -7.66774048E-04
  3.10558868E-03 -4.57498034E-04 -3.86410694E-03  1.08801191E-04 -6.53971204E-05
 -2.09285747E-01  4.71030299E-01 -7.51914965E-02  3.67197876E-02  1.80360783E-03
  4.41907386E-01 -4.10360064E-02  1.96495802E-02  1.05772036E-03  2.12383811E-02
  9.36132150E-03  7.37239201E-03 -8.12742986E-03 -4.45094579E-04  2.20916729E-04
  3.87951728E-02 -8.86461710E-02  7.86387007E-04  2.52789285E-02 -3.52929813E-04
 -9.08247142E-02  5.31738335E-03  2.02020135E-02 -2.30217688E-04 -2.73639525E-04
  1.92398037E-03 -1.94220734E-03  5.06573723E-03 -1.97358142E-05  1.07419266E-04
 -8.87272169E-02  1.92865745E-01 -2.77705822E-03  2.30451377E-01 -3.62285061E-03
  3.13917860E-02  3.16277549E-04 -1.11464757E-02  8.35487067E-04 -2.77311609E-02
  2.27234296E-02 -1.40167860E-02 -1.80514557E-03 -5.65433884E-06 -1.33227081E-03
 -1.94966701E-01  4.30658363E-01  3.67171569E-04 -1.58382674E-01  3.65770655E-03
  3.95557923E-01 -4.76820058E-04 -5.59332911E-02  1.18834540E-03 -9.52579173E-03
  1.06844577E-02 -5.76750643E-03 -8.51065580E-05  3.00104699E-06 -5.42162712E-04
  4.45459287E-02 -1.00713838E-01 -2.69736724E-03  2.08827695E-02 -2.56288205E-04
 -1.06494956E-01 -4.61941874E-03  1.59984939E-02 -2.21984059E-04  4.54782373E-04
  6.89922468E-04 -1.70912421E-03 -4.13811823E-03  3.70764693E-06  7.73960583E-05
  7.70816966E-02 -1.59847858E-01  3.74007002E-01  1.66916989E-01  9.18021594E-03
 -2.77403608E-01  2.14862208E-01  9.09293080E-02  5.07349779E-03  2.49120446E-02
  3.10359899E-03 -5.70276216E-05  1.17803483E-02  7.25779703E-04  2.87786752E-04
 -1.23855204E-01  3.00968266E-01 -5.72583324E-02 -1.96220813E-01 -1.33729715E-03
  1.62329241E-01  4.11286621E-03 -2.47532187E-02  1.57167836E-03  4.13483538E-03
 -1.33294208E-02 -1.32139159E-02  7.17859937E-03  2.04700797E-04  6.42330241E-04
  5.67757677E-02 -1.25860001E-01 -1.11947673E-02 -5.25745439E-02  2.13059497E-04
 -1.62398405E-01 -8.21674496E-03 -3.16059288E-02 -8.97018156E-05  4.81101643E-04
  1.13350028E-02  1.67252716E-03  1.97035821E-03 -6.59462780E-05 -4.50391075E-05
  5.35334593E-02 -1.09968731E-01 -2.36744817E-01  5.70545165E-02  4.67986991E-03
 -1.92259002E-01 -1.42464546E-01  2.88868829E-02  2.50761888E-03  2.18506849E-02
  6.46206082E-04  1.00548224E-03 -5.76365553E-03 -4.60985540E-04  7.80357435E-05
 -3.38907163E-02  6.43270704E-02 -1.87986178E-01 -2.88225066E-01 -9.47200189E-03
  1.36445777E-01 -9.77957571E-02 -1.71471247E-01 -5.77043285E-03 -2.94374635E-03
 -1.20610276E-02 -1.32702366E-03 -1.05519473E-02 -4.12146030E-04 -5.12719458E-04
 -2.40237947E-02  5.77346342E-02  3.52629245E-01 -2.90581518E-02 -1.09996376E-04
  4.33882935E-02  3.83568706E-02 -2.07835782E-02  1.79123071E-04 -1.91314719E-03
 -3.28686761E-04 -7.44364498E-04 -1.98692980E-02 -9.83398179E-04  7.91856502E-05
  9.48664073E-03 -2.24744803E-02  1.17159132E-01 -1.64476570E-02  1.95544383E-04
 -2.15569543E-02  6.97103547E-02 -1.08438338E-02  2.38937092E-04 -5.06064612E-04
  1.60531530E-03 -8.67823707E-05 -1.36514043E-02  3.49052666E-04 -1.82689481E-05
  5.75195012E-02 -1.11516054E-01 -3.49016750E-01  2.29726270E-01  9.76669745E-03
 -2.24988906E-01 -2.00005893E-01  1.37995741E-01  5.87886109E-03  1.81318842E-02
  9.52939986E-03  2.78628479E-03 -1.15066747E-02 -6.01942731E-04  3.87739394E-04
 -2.05634327E-04 -1.48531644E-04 -1.20999534E-02 -5.82683099E-03  4.67329042E-01
  1.97650261E-03 -7.30119594E-03 -2.91564115E-03  2.97966860E-01 -1.04194640E-03
 -3.69627580E-04  7.14329332E-04 -3.37363345E-04  2.17646037E-02  1.15088650E-02
 -2.27032347E-03  5.43578492E-03  3.77425090E-04  9.56602957E-04  3.06519710E-01
  2.37250045E-03 -1.20175943E-03 -2.51799207E-03  1.52494393E-01  2.34448683E-04
  1.30929139E-04 -1.24383276E-03  1.07860277E-04 -8.13195325E-03 -8.01392466E-03
 -2.68901954E-04 -4.98476580E-04  4.54228812E-04  3.81494993E-03  1.49064463E-01
  5.77180813E-03  7.36913981E-04 -1.24520950E-04  6.79185701E-02 -3.84032659E-04
 -7.52638654E-04  5.82345575E-05 -7.87283101E-05 -3.65764329E-04 -1.32604232E-02
 -1.74726327E-04 -5.35696926E-04  6.18145193E-03 -1.15059265E-03  2.62412418E-01
  2.94462037E-03  3.42777437E-03  3.42443065E-04  1.63650737E-01 -8.71882966E-04
 -3.40960476E-04  7.62406213E-05  5.04375545E-06 -1.35218380E-02  4.95462133E-03
  4.71649073E-03 -3.64765395E-03  2.68120041E-01 -3.34725886E-01  5.05761638E-03
 -3.75174568E-02  1.62052303E-01 -2.16114536E-01  2.89287697E-03  1.65690893E-02
 -9.71352413E-03  1.57761373E-03 -9.87273720E-03  3.97329638E-04 -2.97438909E-04
  4.60368349E-02 -1.25474602E-01 -1.76266391E-02 -2.16278226E-01  1.21841618E-03
 -9.56977767E-02  1.47814388E-02 -1.31893634E-01  1.18352419E-04 -1.09852959E-02
  2.37018774E-02  3.00612130E-03  7.92914480E-03 -1.12453274E-04  5.02386677E-04
 -9.14808265E-02  1.86823354E-01  1.42493666E-03  2.85367517E-01 -6.69648561E-03
  4.18825863E-01 -7.26829063E-04  1.11639610E-01 -1.83465288E-03 -8.88112877E-03
 -2.67904650E-02 -3.49928514E-03  9.21029000E-04 -5.85511181E-05  6.22863471E-04
 -8.65661238E-04  7.57915317E-03 -5.96454980E-02 -2.40091494E-01 -1.27411284E-03
 -2.04865125E-02 -3.00460159E-02 -1.55075033E-01 -1.39760311E-03  7.12935988E-03
 -2.76002557E-03  2.14908388E-03  9.91516177E-03  2.45903160E-05 -2.66309152E-04
 -1.95058793E-04 -2.76657972E-04 -9.09079258E-03  2.30044079E-02 -3.94975418E-01
  2.19648386E-03 -5.91318935E-03  1.63392827E-02 -2.77183383E-01 -6.15759613E-04
  6.50158722E-04 -9.44342593E-04  5.82558402E-04 -1.25794547E-02 -7.88387009E-03
  3.83758515E-04 -1.40285094E-03  1.27410035E-03 -5.82592103E-03  6.86567602E-02
 -3.40201758E-04  1.60718404E-03 -2.32473309E-03  4.37385335E-02  4.32232761E-04
 -1.05272232E-04 -1.37809006E-04 -2.57634270E-03  3.05190566E-02  2.34336875E-03
 -1.87021192E-03  3.62999981E-03 -8.10746543E-03  1.06165594E-02  5.72793620E-02
  9.47735578E-03 -7.22440405E-03  4.77392340E-03  3.07399884E-02 -1.91975535E-04
 -8.38227669E-04  5.39181344E-05  6.29417083E-04  2.55706223E-03 -4.17951359E-03
  4.08955198E-04 -2.95074043E-04 -1.10434021E-02 -2.84019080E-02  5.37083033E-01
 -2.70600146E-03 -7.10572823E-03 -1.95822552E-02  3.68377638E-01  6.03858820E-04
 -7.31559613E-04  9.95763425E-04  9.12405598E-04 -1.92907018E-02  8.85775226E-03
 -1.75122654E-03 -8.25381693E-03  2.97945962E-01 -3.24572378E-01 -2.42728100E-02
  5.26140831E-02  2.05576359E-01 -2.08008259E-01 -1.64054619E-02  6.25838236E-03
 -1.62512873E-02 -5.74409042E-03 -3.66800378E-03 -5.00924036E-04 -7.67278040E-04
 -1.63948844E-02  4.61305821E-02 -2.55997320E-02  1.06492266E-01  4.39927959E-03
  1.45953681E-02  7.79578909E-02  2.03376393E-02  3.18098493E-03 -1.23091488E-02
  5.13462106E-03 -1.18092765E-03  3.15738974E-02  1.83186946E-03  1.19860921E-04
  2.99013209E-02 -6.29413993E-02  8.68422943E-02 -1.64306570E-01  9.24249770E-03
 -1.27868500E-01  4.96728032E-02 -8.38322501E-02  5.04229855E-03  3.85496817E-04
  1.08878123E-02 -2.60390304E-04 -2.38604768E-03  1.14861487E-04 -6.90174596E-04
 -3.36180567E-03  1.34960355E-02  3.65537207E-01  2.94393646E-01  2.86791913E-02
 -2.21950355E-02  2.47905090E-01  1.91472070E-01  1.91879279E-02 -1.12973708E-02
  1.37188356E-02  4.41438015E-03 -6.09562046E-03 -7.54539047E-04  8.06562250E-04
 -3.92779991E-03  4.22661906E-03  3.06317780E-02  2.49511914E-01  3.78343030E-03
  4.93060574E-02  2.41656906E-02  1.60868574E-01  3.11278300E-03 -4.34514704E-03
 -2.08771315E-03 -2.65561757E-03  3.09348363E-03  7.81438810E-05  2.62710491E-05
  4.19720205E-02 -1.12501428E-01  1.45930001E-02 -2.18535683E-01 -2.65220269E-03
 -3.81963356E-02  2.77073992E-02  9.91222792E-02 -1.78351134E-03  3.91991578E-02
 -2.09875310E-02  1.61332380E-03  1.13873473E-02  2.33261207E-04 -2.82789120E-04
 -5.23320008E-02  1.21664705E-01  4.65547386E-02  3.84695957E-01 -1.58861956E-02
  1.48364716E-01  2.87493280E-02  2.28047566E-01 -1.09344479E-02  7.71063003E-03
 -2.06795497E-02  4.64940625E-03 -2.44335662E-03  4.94831533E-05  1.26642630E-03
  9.45755247E-05  3.34452448E-03  7.35294335E-02  4.34382603E-01  1.04562203E-02
  3.88589444E-03  4.86304246E-02  2.83335478E-01  7.40148088E-03 -4.28847161E-03
  6.72629912E-03  9.82147992E-04 -7.87113932E-03 -2.38759873E-04  2.98441698E-04
 -1.73560043E-04  1.89834646E-04  3.36150754E-03  7.19922408E-03 -2.32458789E-01
  1.59338625E-03  3.27984202E-03  3.75004116E-03 -1.69139976E-01  1.07127765E-04
 -1.95053033E-04 -2.54288256E-04 -3.50760408E-05 -3.66751692E-03  1.12305395E-03
 -1.18693734E-03  1.72466854E-03 -2.40350631E-05 -3.07210345E-03  2.57830584E-01
  1.23453457E-02 -2.14881849E-04  8.56046136E-03  9.66748521E-02  1.05996586E-04
  2.57174840E-04 -5.05112673E-04  4.69752400E-05 -1.64471526E-03  3.84374607E-02
 -1.82734814E-04  1.46215269E-03  3.46642419E-04  2.30561720E-02  5.14487317E-01
 -6.08468985E-03  3.12058035E-04  1.71512204E-02  3.49240787E-01  5.78830755E-04
 -1.48072379E-03  1.85525244E-03 -3.17675354E-05 -1.85948121E-04 -3.18412068E-02
 -1.52348079E-04  1.46960266E-04 -4.18858252E-03  7.32524507E-03 -2.67310209E-01
  1.37007067E-03 -3.70881418E-03  3.92591209E-03 -1.93131372E-01  1.72675935E-04
 -1.78639395E-04 -2.97647834E-04  3.54769597E-05  4.74975677E-03  9.47575921E-04
 -1.07540706E-02  1.94685129E-02  3.46581145E-02  1.75362467E-01  1.39205350E-03
  8.56336135E-02  3.44239924E-02  1.32251871E-01  1.67955288E-03 -4.22508268E-03
 -2.20584455E-03 -2.11482413E-03  4.86190856E-03 -5.90545596E-05  1.64050632E-04
 -1.15658984E-03  3.73835395E-03  7.68185376E-02  2.95342508E-03 -2.92124915E-04
 -1.00517461E-02  1.17170060E-01 -3.21834058E-03  1.41829572E-04 -2.56489327E-03
  1.44120130E-03 -1.75036398E-04  4.26075091E-02 -1.76372114E-04  2.86731088E-05
 -5.81353489E-04  1.93499017E-03  6.18576281E-01 -3.06361535E-03  3.96694114E-04
  4.55448248E-03  4.03810367E-01 -3.23596905E-03  3.04206606E-04 -4.06755467E-04
  5.29358205E-04  3.03550607E-04 -2.73216661E-02  7.52026510E-04 -1.23989420E-05
  1.04978534E-02 -1.98683936E-02  6.39874087E-02 -2.04371130E-01 -1.22803428E-03
 -8.03425950E-02  5.92668117E-02 -1.49749360E-01 -1.61927049E-03  8.60309447E-04
  2.89632286E-03  1.88516635E-03  5.55904492E-03  3.85761786E-05 -1.78962114E-04
  7.56464655E-03 -1.44504483E-02 -3.74383688E-02 -1.11770707E-02 -2.23483745E-01
 -6.08776926E-02 -4.19262581E-02 -1.62683141E-02 -1.87147504E-01  7.94194945E-04
  4.62357074E-04  3.43085281E-03 -1.07096802E-03  1.56246014E-02  6.97902429E-03
 -2.26625552E-02  4.05635853E-02  7.40344065E-03 -3.54505490E-02  6.21255826E-01
  1.93891028E-01  4.94017894E-04 -1.40419427E-02  4.44886322E-01 -5.12189717E-03
 -3.54360117E-03  4.89996946E-03 -2.95997260E-04  5.83576048E-04 -2.44635089E-02
  4.86618907E-03 -8.97192494E-03 -2.22953967E-03  1.77220642E-02 -4.08380875E-01
 -4.86845019E-02 -2.03345710E-03  2.89271572E-02 -3.90194832E-01  1.13376910E-03
 -1.17669794E-03  3.04140127E-03 -8.30112006E-05  2.92333776E-04 -5.53219265E-03
  7.56080293E-03 -1.49955020E-02  4.30231151E-02 -1.15107402E-02 -2.04211112E-01