CF2O Time step 0                                                        
SP        RB3LYP                                                      6-31G(d)            
Number of atoms                            I                4
Info1-9                                    I   N=           9
          13          13           0           0           0         110
           1          18        -502
Full Title                                 C   N=           2
CF2O Time step 0        
Route                                      C   N=           4
# B3LYP/6-31G(d) pop=full density=current       
Charge                                     I                0
Multiplicity                               I                1
Number of electrons                        I               32
Number of alpha electrons                  I               16
Number of beta electrons                   I               16
Number of basis functions                  I               60
Number of independent functions            I               60
Number of point charges in /Mol/           I                0
Number of translation vectors              I                0
Atomic numbers                             I   N=           4
           9           6           8           9
Nuclear charges                            R   N=           4
  9.00000000E+00  6.00000000E+00  8.00000000E+00  9.00000000E+00
Current cartesian coordinates              R   N=          12
 -2.18736696E+00 -1.13466112E+00 -8.75679151E-04 -6.04525237E-03  1.29091322E-01
  4.03629272E-03 -8.64647452E-03  2.43951038E+00 -1.06631909E-03  2.19908289E+00
 -1.11985343E+00 -8.67343467E-04
Number of symbols in /Mol/                 I                0
Int Atom Types                             I   N=           4
           0           0           0           0
Force Field                                I                0
Atom Types                                 C   N=           4
                                                
MM charges                                 R   N=           4
  0.00000000E+00  0.00000000E+00  0.00000000E+00  0.00000000E+00
Integer atomic weights                     I   N=           4
          19          12          16          19
Real atomic weights                        R   N=           4
  1.89984032E+01  1.20000000E+01  1.59949146E+01  1.89984032E+01
Atom fragment info                         I   N=           4
           0           0           0           0
Atom residue num                           I   N=           4
           0           0           0           0
Nuclear spins                              I   N=           4
           1           0           0           1
Nuclear ZEff                               R   N=           4
 -6.75000000E+00 -3.60000000E+00 -5.60000000E+00 -6.75000000E+00
Nuclear ZNuc                               R   N=           4
  9.00000000E+00  6.00000000E+00  8.00000000E+00  9.00000000E+00
Nuclear QMom                               R   N=           4
  0.00000000E+00  0.00000000E+00  0.00000000E+00  0.00000000E+00
Nuclear GFac                               R   N=           4
  2.62886700E+00  0.00000000E+00  0.00000000E+00  2.62886700E+00
MicOpt                                     I   N=           4
          -1          -1          -1          -1
Number of residues                         I                0
Number of secondary structures             I                0
SymInf integers                            I   N=          26
           1           1           1           1           1           0
           0           0           0           0           0           0
           0           0           0           0           0           0
           0           0           0           0           0           0
           0           0
RotTr to input orientation                 R   N=          12
 -9.99994689E-01  3.53551673E-04  3.23983691E-03  1.25718653E-04  9.97543159E-01
 -7.00544733E-02 -3.25664502E-03 -7.00536939E-02 -9.97537906E-01  1.82122355E-04
  3.42104797E-02 -2.42906577E-03
Number of contracted shells                I               16
Number of primitive shells                 I               44
Pure/Cartesian d shells                    I                1
Pure/Cartesian f shells                    I                0
Highest angular momentum                   I                2
Largest degree of contraction              I                6
Shell types                                I   N=          16
           0          -1          -1           2           0          -1
          -1           2           0          -1          -1           2
           0          -1          -1           2
Number of primitives per shell             I   N=          16
           6           3           1           1           6           3
           1           1           6           3           1           1
           6           3           1           1
Shell to atom map                          I   N=          16
           1           1           1           1           2           2
           2           2           3           3           3           3
           4           4           4           4
Primitive exponents                        R   N=          44
  7.00171309E+03  1.05136609E+03  2.39285690E+02  6.73974453E+01  2.15199573E+01
  7.40310130E+00  2.08479528E+01  4.80830834E+00  1.34406986E+00  3.58151393E-01
  8.00000000E-01  3.04752488E+03  4.57369518E+02  1.03948685E+02  2.92101553E+01
  9.28666296E+00  3.16392696E+00  7.86827235E+00  1.88128854E+00  5.44249258E-01
  1.68714478E-01  8.00000000E-01  5.48467166E+03  8.25234946E+02  1.88046958E+02
  5.29645000E+01  1.68975704E+01  5.79963534E+00  1.55396162E+01  3.59993359E+00
  1.01376175E+00  2.70005823E-01  8.00000000E-01  7.00171309E+03  1.05136609E+03
  2.39285690E+02  6.73974453E+01  2.15199573E+01  7.40310130E+00  2.08479528E+01
  4.80830834E+00  1.34406986E+00  3.58151393E-01  8.00000000E-01
Contraction coefficients                   R   N=          44
  1.81961690E-03  1.39160796E-02  6.84053245E-02  2.33185760E-01  4.71267439E-01
  3.56618546E-01 -1.08506975E-01 -1.46451658E-01  1.12868858E+00  1.00000000E+00
  1.00000000E+00  1.83473713E-03  1.40373228E-02  6.88426223E-02  2.32184443E-01
  4.67941348E-01  3.62311985E-01 -1.19332420E-01 -1.60854152E-01  1.14345644E+00
  1.00000000E+00  1.00000000E+00  1.83107443E-03  1.39501722E-02  6.84450781E-02
  2.32714336E-01  4.70192898E-01  3.58520853E-01 -1.10777550E-01 -1.48026263E-01
  1.13076702E+00  1.00000000E+00  1.00000000E+00  1.81961690E-03  1.39160796E-02
  6.84053245E-02  2.33185760E-01  4.71267439E-01  3.56618546E-01 -1.08506975E-01
 -1.46451658E-01  1.12868858E+00  1.00000000E+00  1.00000000E+00
P(S=P) Contraction coefficients            R   N=          44
  0.00000000E+00  0.00000000E+00  0.00000000E+00  0.00000000E+00  0.00000000E+00
  0.00000000E+00  7.16287242E-02  3.45912103E-01  7.22469956E-01  1.00000000E+00
  0.00000000E+00  0.00000000E+00  0.00000000E+00  0.00000000E+00  0.00000000E+00
  0.00000000E+00  0.00000000E+00  6.89990666E-02  3.16423961E-01  7.44308291E-01
  1.00000000E+00  0.00000000E+00  0.00000000E+00  0.00000000E+00  0.00000000E+00
  0.00000000E+00  0.00000000E+00  0.00000000E+00  7.08742682E-02  3.39752839E-01
  7.27158577E-01  1.00000000E+00  0.00000000E+00  0.00000000E+00  0.00000000E+00
  0.00000000E+00  0.00000000E+00  0.00000000E+00  0.00000000E+00  7.16287242E-02
  3.45912103E-01  7.22469956E-01  1.00000000E+00  0.00000000E+00
Coordinates of each shell                  R   N=          48
 -2.18736696E+00 -1.13466112E+00 -8.75679151E-04 -2.18736696E+00 -1.13466112E+00
 -8.75679151E-04 -2.18736696E+00 -1.13466112E+00 -8.75679151E-04 -2.18736696E+00
 -1.13466112E+00 -8.75679151E-04 -6.04525237E-03  1.29091322E-01  4.03629272E-03
 -6.04525237E-03  1.29091322E-01  4.03629272E-03 -6.04525237E-03  1.29091322E-01
  4.03629272E-03 -6.04525237E-03  1.29091322E-01  4.03629272E-03 -8.64647452E-03
  2.43951038E+00 -1.06631909E-03 -8.64647452E-03  2.43951038E+00 -1.06631909E-03
 -8.64647452E-03  2.43951038E+00 -1.06631909E-03 -8.64647452E-03  2.43951038E+00
 -1.06631909E-03  2.19908289E+00 -1.11985343E+00 -8.67343467E-04  2.19908289E+00
 -1.11985343E+00 -8.67343467E-04  2.19908289E+00 -1.11985343E+00 -8.67343467E-04
  2.19908289E+00 -1.11985343E+00 -8.67343467E-04
Num ILSW                                   I              100
ILSW                                       I   N=         100
           0           1           0           0           2           0
           0           0           0           0         402          -1
           5           0           0           0           0           0
           0           0           1           0           0           0
           1           0           0           0           0           0
           0           0      100000           0          -1           0
           0           0           0           0           0           0
           0           0           0           1           0           0
           0 -2000000000           1           0           0           0
           0           0           4          52           0           0
           0           0           5           0           0           0
           0           0           0           0           0           1
           0           0           0           0           0           0
           0           0           0           0           0           0
           0           0           0           0           0           0
           0           0           0           0           0           0
           0           0           0           0
Num RLSW                                   I               52
RLSW                                       R   N=          52
  8.00000000E-01  7.20000000E-01  1.00000000E+00  8.10000000E-01  2.00000000E-01
  0.00000000E+00  0.00000000E+00  1.00000000E+00  0.00000000E+00  0.00000000E+00
  0.00000000E+00  0.00000000E+00  1.00000000E+00  0.00000000E+00  0.00000000E+00
  0.00000000E+00  0.00000000E+00  1.00000000E+00  0.00000000E+00  0.00000000E+00
  0.00000000E+00  0.00000000E+00  1.00000000E+00  0.00000000E+00  0.00000000E+00
  0.00000000E+00  0.00000000E+00  1.00000000E+00  0.00000000E+00  0.00000000E+00
  0.00000000E+00  0.00000000E+00  1.00000000E+00  0.00000000E+00  0.00000000E+00
  0.00000000E+00  0.00000000E+00  0.00000000E+00  1.00000000E+00  1.00000000E+00
  0.00000000E+00  1.00000000E+00  0.00000000E+00  0.00000000E+00  0.00000000E+00
  0.00000000E+00  0.00000000E+00  0.00000000E+00  0.00000000E+00  0.00000000E+00
  0.00000000E+00  0.00000000E+00
MxBond                                     I                3
NBond                                      I   N=           4
           1           3           1           1
IBond                                      I   N=          12
           2           0           0           1           3           4
           2           0           0           2           0           0
RBond                                      R   N=          12
  1.00000000E+00  0.00000000E+00  0.00000000E+00  1.00000000E+00  2.00000000E+00
  1.00000000E+00  2.00000000E+00  0.00000000E+00  0.00000000E+00  1.00000000E+00
  0.00000000E+00  0.00000000E+00
Virial Ratio                               R      2.008174994546816E+00
SCF Energy                                 R     -3.129952919074299E+02
Total Energy                               R     -3.129952919074299E+02
RMS Density                                R      8.284946084739499E-09
Job Status                                 I                1
Nuclear derivative order                   I                0
External E-field                           R   N=          35
  0.00000000E+00  0.00000000E+00  0.00000000E+00  0.00000000E+00  0.00000000E+00
  0.00000000E+00  0.00000000E+00  0.00000000E+00  0.00000000E+00  0.00000000E+00
  0.00000000E+00  0.00000000E+00  0.00000000E+00  0.00000000E+00  0.00000000E+00
  0.00000000E+00  0.00000000E+00  0.00000000E+00  0.00000000E+00  0.00000000E+00
  0.00000000E+00  0.00000000E+00  0.00000000E+00  0.00000000E+00  0.00000000E+00
  0.00000000E+00  0.00000000E+00  0.00000000E+00  0.00000000E+00  0.00000000E+00
  0.00000000E+00  0.00000000E+00  0.00000000E+00  0.00000000E+00  0.00000000E+00
IOpCl                                      I                0
IROHF                                      I                0
Alpha Orbital Energies                     R   N=          60
 -2.47864099E+01 -2.47835598E+01 -1.91906145E+01 -1.04582185E+01 -1.32188669E+00
 -1.27317844E+00 -1.07637064E+00 -6.90464063E-01 -6.24009365E-01 -5.64917845E-01
 -5.36533377E-01 -4.83645235E-01 -4.75106282E-01 -4.56298351E-01 -3.80820346E-01
 -3.34414998E-01 -3.51391230E-02  4.82798912E-02  2.59086111E-01  3.11104798E-01
  4.64287724E-01  4.72360678E-01  4.76515171E-01  5.87189567E-01  8.37233635E-01
  9.45146735E-01  9.52617987E-01  1.04096121E+00  1.09735307E+00  1.11761145E+00
  1.22131315E+00  1.26835748E+00  1.28196251E+00  1.33692677E+00  1.35506389E+00
  1.37230715E+00  1.60133659E+00  1.64263161E+00  1.74524804E+00  1.76279164E+00
  1.77698232E+00  1.79477447E+00  1.81141969E+00  1.85093867E+00  1.90421633E+00
  1.91964380E+00  1.95601648E+00  2.08433581E+00  2.12096957E+00  2.54162166E+00
  2.59683580E+00  2.71167981E+00  2.75512964E+00  2.96464431E+00  3.02579418E+00
  3.06588871E+00  3.75307825E+00  4.15235056E+00  4.42587611E+00  4.61545054E+00
Alpha MO coefficients                      R   N=        3600
  9.92984006E-01  1.95517903E-02  7.16868397E-04  3.35219295E-04  1.96950708E-06
  1.54929472E-02 -3.76491830E-04 -1.68590508E-04 -7.02909746E-07 -8.42244373E-03
 -8.15324384E-03 -8.03235322E-03 -2.58364837E-04 -1.01652740E-06 -5.80168566E-07
  2.45494095E-05  3.83553389E-04 -5.53517158E-04 -3.15679037E-04 -1.91825469E-06
 -4.59391987E-04  8.04226989E-04  4.10405085E-04  5.02575509E-07  4.47192408E-04
  2.40080381E-04 -1.80148352E-05  1.80719756E-04  6.99596158E-07  4.20784957E-07
  1.72139500E-05  1.37010608E-04  2.08603025E-05  2.61329955E-05 -3.08078713E-08
 -4.77472136E-04 -1.18963706E-04  2.42958912E-04 -6.26952251E-07  1.96163941E-05
 -9.77800999E-05  1.00263443E-04 -4.34765160E-05 -2.73585902E-07  3.67085382E-07
  9.65395229E-05  2.82732853E-04 -3.05414197E-05  2.59963663E-05  1.01712485E-07
 -8.39669195E-04  1.89945279E-04 -1.92079820E-04 -6.87089418E-07  4.19707621E-05
  1.61544623E-04  2.24411818E-04  4.70149352E-05  2.00011898E-07 -3.79302985E-07
 -1.12543405E-05  2.85689034E-04  3.01253738E-05  2.63281184E-05  1.01658999E-07
 -8.58882896E-04 -1.93297665E-04 -1.99661476E-04 -7.08163892E-07  4.65216267E-05
  1.61259666E-04  2.30367379E-04 -5.17146741E-05 -2.11526907E-07 -4.06786405E-07
  2.41201023E-05  3.56281229E-04  5.45375533E-04 -3.06457939E-04 -1.90340695E-06
 -4.41130741E-04 -8.00731249E-04  3.99130620E-04  4.61414370E-07  4.74737076E-04
  2.48118884E-04 -1.25734851E-05 -1.89298882E-04 -7.31996041E-07  4.35268504E-07
  1.76407128E-05  1.39601090E-04 -1.98700882E-05  2.57742531E-05 -3.35445622E-08
 -4.85713128E-04  1.18590763E-04  2.49269092E-04 -6.34951342E-07  1.96336865E-05
 -9.80267010E-05  1.03223001E-04  4.00932612E-05  2.88393576E-07  3.90301388E-07
  9.92986859E-01  1.95574494E-02 -7.12432919E-04  3.22787529E-04  1.93751130E-06
  1.54606407E-02  3.75903488E-04 -1.63256271E-04 -6.92702215E-07 -8.41951505E-03
 -8.14126307E-03 -8.02517856E-03  2.55430750E-04  1.01621061E-06 -5.67122224E-07
  4.44934686E-06  3.49629986E-05  1.22330435E-05 -4.52623957E-05  2.09906090E-07
 -3.63179733E-05 -5.09616445E-05  1.98097061E-04 -8.63184520E-07  7.60274680E-05
 -9.89558622E-05  3.70180908E-05 -3.33954168E-05  1.58276510E-07  2.21544988E-07
  3.65369290E-05  6.22532578E-04  2.65509295E-06 -4.10988798E-05  1.43328046E-07
 -3.23838045E-03  9.18730262E-07 -2.28013269E-03  5.63147540E-06  7.90609254E-06
 -8.29459500E-04  4.44353720E-05 -1.23808715E-06 -3.73333603E-09  2.12952936E-06
  9.92805335E-01  2.58144312E-02  2.49953880E-07 -1.24190879E-03  3.42356363E-06
  1.27952519E-02  2.92342100E-06 -1.34537676E-03  2.59219367E-06 -7.98128585E-03
 -7.47534885E-03 -7.99664934E-03 -1.39977769E-06  3.65047656E-09 -1.25488699E-06
  4.18702961E-06  3.42164271E-05 -1.11747599E-05 -4.47279411E-05  2.03034457E-07
 -3.13074990E-05  5.31072817E-05  1.95335540E-04 -8.57423527E-07  6.91911375E-05
 -9.77527593E-05  3.75710541E-05  3.55939599E-05 -1.31768197E-07  2.16309421E-07
  2.61731805E-05  6.16054896E-04  1.17150509E-04  5.34958236E-05  2.77323634E-07
 -1.99118274E-03 -1.76130822E-03 -9.26195477E-04 -3.89287824E-06 -4.76451729E-04
  2.62958420E-04  5.72201336E-04 -6.08721757E-04 -3.10765437E-06 -1.68816635E-06
  9.92987820E-01  4.62625068E-02 -4.20171248E-05 -1.50665313E-03 -4.35364698E-06
 -3.12872334E-03 -3.62418821E-05 -9.34317940E-07 -3.42534359E-06 -7.66448381E-03
 -8.14375301E-03 -9.57607568E-03  2.71663237E-05  7.75359009E-08  1.22274039E-06
 -2.06504121E-04  3.20578107E-05 -2.06565335E-06 -1.09346246E-04 -4.04728853E-08
 -4.59364431E-04  7.99997755E-06  9.65942660E-04 -1.90578107E-06 -8.08314301E-05
 -1.62851323E-05  1.00559042E-05  1.90198448E-06 -7.61309874E-09  7.71888455E-07
  2.23691318E-05  5.77014165E-04 -1.17585649E-04  5.08534245E-05  2.68051430E-07
 -1.82091258E-03  1.71215533E-03 -8.69876973E-04 -3.68434718E-06 -4.98012525E-04
  2.48730931E-04  5.42745067E-04  5.90950936E-04  3.04036676E-06 -1.61221038E-06
 -1.55855512E-01  3.51882831E-01  7.54523712E-02  3.76771365E-02  1.59795752E-04
  3.14593213E-01  4.29984853E-02  1.83740308E-02  7.30527764E-05  2.20288498E-02
  8.10905862E-03  6.02513995E-03  8.94166542E-03  4.02850703E-05  1.86959578E-05
 -9.70005238E-02  1.85536479E-01 -8.63264378E-03 -6.09662696E-02 -3.20601042E-04
  3.26727022E-02  6.09222661E-04 -4.61184262E-04  9.05828200E-05  1.02162494E-02
 -6.72134349E-03 -1.94853130E-02  1.91184148E-03  6.20743558E-06  3.97996577E-05
 -2.81743775E-02  6.27134590E-02 -5.78912957E-04 -3.74622472E-02  4.63174235E-05
  4.96696455E-02 -4.86937843E-04 -1.76070891E-02 -7.48943531E-06 -1.81125740E-03
  8.27498040E-03 -3.10384372E-04  2.57744707E-04 -9.26517110E-07 -9.21096832E-06
 -1.39592314E-01  3.14858864E-01 -6.87851102E-02  3.27410180E-02  1.40295116E-04
  2.82046328E-01 -4.06515983E-02  1.62516269E-02  6.35647442E-05  2.08428368E-02
  6.99303861E-03  5.24334139E-03 -8.28225752E-03 -3.75488574E-05  1.63434114E-05
  1.53538699E-01 -3.47343658E-01 -5.41143391E-02 -3.46821961E-02 -1.53173178E-04
 -3.18737601E-01 -2.21315784E-02 -1.59033618E-02 -8.47485397E-05 -1.16984867E-02
 -8.43990788E-03 -6.38936821E-03 -5.04122634E-03 -2.62346460E-05 -1.82693239E-05
 -4.52195161E-03  8.76758230E-03  1.55737003E-01 -1.14233551E-03 -1.35481123E-05
  1.80785895E-03 -9.03941583E-03 -2.25733274E-04  4.23270989E-06  4.64456140E-04
 -4.32971161E-04 -8.17328216E-04 -2.96014405E-02 -1.00493500E-04  2.56955232E-07
 -1.87844534E-03  4.13011686E-03  1.30474566E-02 -2.29295500E-03  3.35973244E-06
  3.39981006E-03  9.75717095E-03 -9.53992948E-04  4.93514484E-08 -9.72072678E-05
  4.06304843E-04 -4.48301094E-05 -4.67338874E-03  1.44118787E-05 -7.75989045E-07
 -1.68671452E-01  3.81235802E-01 -6.09884682E-02  3.70938881E-02  1.64679115E-04
  3.50528272E-01 -2.67206230E-02  1.74339110E-02  9.09948067E-05  1.39574630E-02
  9.01008686E-03  6.85068802E-03 -5.89868137E-03 -3.03238670E-05  1.96885156E-05
  4.21056171E-02 -9.61568770E-02 -7.03378057E-04  2.33644677E-02 -3.65504270E-05
 -9.74828340E-02  4.88884004E-03  1.87463646E-02 -2.31566951E-05 -1.70355084E-04
  1.20581417E-03 -2.18039595E-03  4.89965865E-03 -1.16514225E-06  9.77762613E-06
 -8.99188099E-02  1.94030413E-01 -3.97192825E-04  2.40800924E-01 -3.61079830E-04
  2.85759175E-02  4.65306790E-05 -1.14126309E-02  8.40927120E-05 -2.95180046E-02
  2.25334303E-02 -1.45231774E-02 -2.00377702E-04  8.21032921E-09 -1.35279208E-04
 -1.94339439E-01  4.26919988E-01  7.87794584E-05 -1.63451203E-01  3.71527315E-04
  3.87288388E-01 -3.89368984E-05 -5.41987264E-02  1.13442655E-04 -9.61455710E-03
  1.06996722E-02 -6.06141771E-03 -1.55018827E-05  4.67892156E-08 -5.45331900E-05
  4.27732465E-02 -9.75629864E-02  4.79083309E-04  2.29349329E-02 -3.55291155E-05
 -9.93259137E-02 -4.81356639E-03  1.83011109E-02 -2.31589357E-05 -8.63902891E-05
  1.06779579E-03 -2.15615406E-03 -4.80336707E-03  9.93752349E-07  9.46259579E-06
  6.89848017E-02 -1.42581875E-01  3.25429530E-01  1.16726785E-01  7.02768148E-04
 -2.47558844E-01  1.89898335E-01  6.26414381E-02  3.83311632E-04  2.43388723E-02
  1.73968888E-03  3.90012958E-04  9.41319521E-03  6.09603447E-05  1.82171295E-05
 -1.23546564E-01  2.99258139E-01 -6.24413673E-03 -2.03589012E-01 -1.27544826E-04
  1.54689895E-01  4.41261647E-04 -2.56841028E-02  1.64940583E-04  3.98223991E-03
 -1.33862371E-02 -1.31110456E-02  7.82863088E-04  2.14730467E-06  6.36341179E-05
  5.53182440E-02 -1.22240141E-01 -1.32201671E-03 -5.02530507E-02  6.50603325E-06
 -1.55016553E-01 -9.38996999E-04 -3.24794601E-02 -1.38670412E-05  1.90256996E-04
  1.11254868E-02  1.71162769E-03  2.22969598E-04 -7.51416276E-07 -2.63076983E-06
  6.64408748E-02 -1.37199459E-01 -3.10757997E-01  1.04468811E-01  6.55738455E-04
 -2.38270549E-01 -1.82237249E-01  5.57637604E-02  3.56691591E-04  2.40353326E-02
  1.45719356E-03  5.09780964E-04 -8.75503511E-03 -5.82498109E-05  1.59559529E-05
 -4.70261434E-02  9.11431089E-02 -2.69523732E-01 -2.69907474E-01 -9.46857659E-04
  1.85874751E-01 -1.46633413E-01 -1.59470750E-01 -5.67212766E-04 -9.44606627E-03
 -1.09881395E-02 -1.61091091E-03 -1.13377234E-02 -4.90123260E-05 -4.59844146E-05
 -2.52863107E-03  6.05261196E-03  3.59476713E-01 -3.24330667E-03 -1.53063772E-06
  4.24615704E-03  3.27499349E-02 -2.08822343E-03  2.20562095E-06 -1.53536069E-04
 -5.55556561E-05 -8.73139519E-05 -2.14378917E-02 -9.98779830E-05  8.48991333E-07
  9.73647198E-04 -2.29792602E-03  1.20914332E-01 -1.52735225E-03  1.30210938E-06
 -2.14044134E-03  7.16005165E-02 -1.05500111E-03  1.95574112E-06 -4.82364482E-05
  1.55997642E-04 -4.10346539E-06 -1.42461791E-02  3.71706393E-05 -8.17390107E-08
  4.96832811E-02 -9.64526125E-02 -2.87238079E-01  2.64326068E-01  9.52363252E-04
 -1.95722472E-01 -1.57790511E-01  1.56322761E-01  5.69754881E-04  1.10779740E-02
  1.07195635E-02  1.76573152E-03 -1.14781043E-02 -5.11285380E-05  4.47577814E-05
 -2.06936595E-05 -2.74921602E-05 -9.47181986E-04 -3.13950204E-04  3.78913668E-01
  2.47844451E-04 -5.57616752E-04 -1.04978369E-04  2.39293718E-01 -9.75030295E-05
 -3.26378289E-05  4.32616885E-05 -1.69533606E-05  1.88291359E-02  8.88817736E-03
 -2.34727492E-04  5.49479307E-04  3.95959225E-06  1.27928712E-04  3.18661848E-01
  2.41683176E-04 -1.17384805E-05 -2.31060187E-04  1.55590128E-01  2.32947331E-05
  1.17734628E-05 -1.27310339E-04  1.03339710E-06 -8.31221152E-04 -7.43165912E-03
 -1.49467514E-05 -7.53684968E-05  4.65681604E-06  3.70095981E-04  1.60899562E-01
  5.34147897E-04  7.41375681E-06 -1.60565005E-05  7.30114344E-02 -3.72376539E-05
 -7.55855868E-05  1.01019414E-05 -7.37174911E-07 -3.19761942E-05 -1.44517711E-02
 -2.03160290E-05 -3.12918550E-05  8.88253659E-04 -2.67238408E-04  3.58272155E-01
  2.56634558E-04  5.19455041E-04 -7.27513260E-05  2.25799570E-01 -9.57185272E-05
 -3.22825226E-05  3.69741740E-05  1.36017038E-05 -1.80012385E-02  8.18732222E-03
  2.99584953E-03  3.66836163E-04  1.80113840E-01 -3.04591991E-01  2.84036691E-04
 -3.54375900E-02  1.05639489E-01 -1.96991326E-01  1.34764691E-04  1.31125468E-02
 -6.72493046E-03  2.16714517E-03 -1.05801439E-02  2.41851170E-05 -2.73127692E-05
  4.59122197E-02 -1.25435843E-01 -1.76697720E-03 -2.13983590E-01  2.00723447E-04
 -9.02984284E-02  1.65723886E-03 -1.36064195E-01  4.44772230E-05 -1.16508138E-02
  2.61598270E-02  3.22301399E-03  8.27408657E-04 -1.54028702E-06  4.56202563E-05
 -9.39192883E-02  1.91398759E-01  9.01299199E-05  2.90859817E-01 -6.17422749E-04
  4.33333855E-01 -1.26516279E-04  1.13653886E-01 -1.52591149E-04 -8.89979133E-03
 -2.81857088E-02 -3.24923596E-03  1.13273441E-04 -6.80037742E-07  6.21902386E-05
  2.43405172E-03  1.48455270E-03 -1.58098902E-01 -2.95198549E-01  2.10669626E-04
 -3.37024508E-02 -9.17477204E-02 -1.90925883E-01  8.52370780E-05  1.21229708E-02
 -5.97715605E-03  2.22725651E-03  1.06192165E-02 -1.95857485E-05 -2.72911538E-05
 -2.77987518E-05 -1.04668723E-05 -8.49615767E-04  2.30772565E-03 -4.71473250E-01
  2.60855313E-04 -5.40558117E-04  1.62096901E-03 -3.25975249E-01 -5.72088167E-05
  6.57968425E-05 -1.02718096E-04  6.93227724E-05 -1.63810018E-02 -9.37298203E-03
  2.65603668E-06 -1.09389813E-05  9.83573985E-05 -4.87991986E-05  7.05189272E-03
 -1.82033860E-06  1.84648709E-04 -2.33231915E-05  4.38852786E-03  3.05084522E-06
  1.06079610E-07 -1.48509603E-06 -2.51753789E-04  3.25555458E-02  2.69428626E-04
 -1.69291547E-05  3.25470602E-05 -7.75697827E-04  9.25696470E-05  6.00045889E-03
  8.84846534E-05 -6.94217276E-04  4.00694008E-05  3.19141950E-03 -1.98204275E-06
 -7.83720698E-06  6.40196353E-07  5.88705055E-05  2.65202583E-03 -4.44882168E-04
  2.97930832E-05  5.13775802E-06 -8.67757630E-04 -2.37781774E-03  4.85477313E-01
 -2.66351118E-04 -5.51117804E-04 -1.66387127E-03  3.34933287E-01  5.71391618E-05
 -6.68280319E-05  1.03377430E-04  7.30559694E-05 -1.70900929E-02  9.46936297E-03
 -1.20128464E-04 -9.09732949E-03  3.50358087E-01 -3.21845367E-01 -2.30153492E-03
  4.31560549E-02  2.37689852E-01 -2.07287743E-01 -1.53884318E-03  9.35970214E-03
 -1.65808132E-02 -5.17182857E-03 -4.91529671E-03 -5.20934221E-05 -7.87068924E-05
 -1.68393132E-03  4.71418290E-03 -2.12850575E-02  1.06709497E-02  3.80829372E-05
  1.33126425E-03  8.79511210E-02  2.19426447E-03  2.79160845E-05 -1.24837339E-03
  4.56005048E-04 -1.28062518E-04  3.63132912E-02  1.69312331E-04  1.39108219E-06
  3.12398482E-03 -6.59319601E-03  9.93662230E-02 -1.67108433E-02  8.83605955E-05
 -1.34864570E-02  5.56409055E-02 -8.43758770E-03  4.76021602E-05  4.10391678E-05
  1.15050443E-03 -4.53113660E-05 -2.64682903E-03  9.33411934E-06 -6.77873236E-06
 -4.26312247E-04  9.65872369E-03  3.57116282E-01  3.20656353E-01  2.33296873E-03
 -3.98253321E-02  2.41855382E-01  2.06891002E-01  1.55867617E-03 -9.88459402E-03
  1.63327375E-02  5.02197831E-03 -5.25304893E-03 -5.42515863E-05  7.91112388E-05
 -1.80573791E-03  3.96029114E-03 -1.56438813E-02  3.23167509E-01  6.48347149E-04
  2.56872238E-02 -9.68634260E-03  2.08208419E-01  4.81877935E-04 -4.42973372E-03
  2.35266039E-03 -7.16820103E-04  4.58966822E-03  1.32231920E-05  1.37568082E-05
  4.56363404E-02 -1.21748228E-01  1.56718513E-03 -2.37952083E-01 -3.02223950E-04
 -3.48719327E-02  2.78051539E-03  9.77857367E-02 -2.16282911E-04  4.23266348E-02
 -2.14319507E-02  1.94726214E-03  1.24162365E-03  2.61819788E-06 -3.37978593E-05
 -5.93807857E-02  1.37688047E-01  4.66919876E-03  4.19602492E-01 -1.72841676E-03
  1.77359419E-01  2.84398659E-03  2.44013136E-01 -1.15833977E-03  7.97358264E-03
 -2.33922066E-02  5.32810461E-03 -2.31502511E-04  4.49216055E-07  1.38926169E-04
 -1.38679807E-03  3.78502783E-03  2.62870864E-02  3.41154153E-01  7.18731349E-04
  2.11969341E-02  1.70085909E-02  2.20129193E-01  5.27598518E-04 -4.45760748E-03
  3.25331226E-03 -3.77792124E-04 -5.07411097E-03 -1.50807303E-05  1.66909540E-05
 -1.78539188E-05  1.61056621E-05  3.71880418E-04  7.40325861E-04 -2.50751854E-01
  1.70370982E-04  3.50565551E-04  3.89739085E-04 -1.82128604E-01  1.14442749E-05
 -2.02917960E-05 -3.04119564E-05 -2.90708664E-06 -4.59801217E-03  8.92917342E-04
 -1.04294366E-04  1.48225575E-04 -4.65138696E-08 -3.03297578E-04  2.54851075E-01
  1.20979331E-03 -2.45920509E-06  8.99553299E-04  9.17664113E-02  1.89530800E-05
  2.61301738E-05 -4.88960047E-05  6.09967675E-07 -1.89935800E-04  4.00881265E-02
 -1.67299551E-05  1.53396764E-04  3.54701012E-06  2.26861608E-03  5.15199270E-01
 -6.56144923E-04  3.16260166E-06  1.68728497E-03  3.48933722E-01  6.08752749E-05
 -1.45227405E-04  1.88668701E-04 -2.87733028E-07 -1.11422241E-05 -3.23997588E-02
 -1.76050177E-05  1.56324042E-05 -3.81285362E-04  7.41063678E-04 -2.54431096E-01
  1.67913848E-04 -3.55625940E-04  3.91130638E-04 -1.84671810E-01  1.21918067E-05
 -2.00942558E-05 -3.08803386E-05  2.88022067E-06  4.71859030E-03  8.74678846E-04
 -1.08681451E-02  2.02076145E-02  4.31060802E-02  1.94478859E-01  1.21069000E-04
  8.48724513E-02  4.13168797E-02  1.44746219E-01  1.53368554E-04 -3.50393464E-03
 -2.19084810E-03 -2.03416401E-03  5.30696662E-03 -4.02783627E-06  1.73405183E-05
 -1.15654763E-04  3.61628558E-04  7.71421736E-02  3.37713838E-04 -3.04327337E-06
 -1.04184814E-03  1.17075143E-01 -3.81531126E-04  1.37244247E-06 -2.94104238E-04
  1.86171878E-04 -2.09399811E-05  4.45536082E-02 -1.56209925E-05  2.82076136E-07
 -6.44451872E-05  1.94647456E-04  6.17090797E-01 -1.83960385E-04  3.69661406E-06
  5.49869909E-04  4.01744967E-01 -2.55308820E-04  2.92277157E-06 -3.37429253E-05
  3.47204680E-05  2.56103095E-05 -2.78944042E-02  7.55560973E-05 -7.87341421E-08
  1.08453302E-02 -2.02450819E-02  4.61097301E-02 -1.97517007E-01 -1.18983916E-04
 -8.44321805E-02  4.38878315E-02 -1.46590556E-01 -1.52536295E-04  3.16591286E-03
  2.27253340E-03  2.01482824E-03  5.39645219E-03 -3.05153748E-06 -1.75231388E-05
  7.26633215E-04 -1.33275457E-03 -3.49670222E-03 -1.09190628E-03 -2.20266934E-01
 -5.96229606E-03 -4.09816945E-03 -1.59834812E-03 -1.85333480E-01  5.43853362E-05
  7.35916134E-05  3.54791217E-04 -1.08478170E-04  1.60934165E-02  6.66247395E-03
 -2.06202659E-03  3.52074669E-03  6.50171588E-05 -3.13047769E-03  6.31281706E-01
  1.93358386E-02  2.54269934E-06 -1.16720302E-03  4.63832831E-01 -4.22434348E-04
 -3.10224277E-04  4.89044748E-04 -2.25075487E-06  7.00203895E-05 -2.49710394E-02
  4.91661817E-04 -8.53852969E-04 -1.84928637E-05  1.52704734E-03 -4.11648185E-01
 -5.22390542E-03 -1.79113471E-05  2.82577737E-03 -4.02357397E-01  1.32315118E-04
 -1.24191265E-04  3.27984152E-04 -5.73307808E-07  3.12902457E-05 -6.33463184E-03
  7.26351147E-04 -1.33769774E-03  3.54786036E-03 -1.09274912E-03 -2.18317955E-01