CF2O Time step 40                                                       
SP        RB3LYP                                                      6-31G(d)            
Number of atoms                            I                4
Info1-9                                    I   N=           9
          13          13           0           0           0         110
           1          18        -502
Full Title                                 C   N=           2
CF2O Time step 40       
Route                                      C   N=           4
# B3LYP/6-31G(d) pop=full density=current       
Charge                                     I                0
Multiplicity                               I                1
Number of electrons                        I               32
Number of alpha electrons                  I               16
Number of beta electrons                   I               16
Number of basis functions                  I               60
Number of independent functions            I               60
Number of point charges in /Mol/           I                0
Number of translation vectors              I                0
Atomic numbers                             I   N=           4
           9           6           8           9
Nuclear charges                            R   N=           4
  9.00000000E+00  6.00000000E+00  8.00000000E+00  9.00000000E+00
Current cartesian coordinates              R   N=          12
 -2.20283837E+00 -1.32441023E+00 -3.72743345E-02 -1.99176554E-01  1.04606115E-01
  1.49066963E-01 -2.03988365E-01  2.50619976E+00 -3.88636431E-02  2.51694573E+00
 -9.73060304E-01 -2.75581801E-02
Number of symbols in /Mol/                 I                0
Int Atom Types                             I   N=           4
           0           0           0           0
Force Field                                I                0
Atom Types                                 C   N=           4
                                                
MM charges                                 R   N=           4
  0.00000000E+00  0.00000000E+00  0.00000000E+00  0.00000000E+00
Integer atomic weights                     I   N=           4
          19          12          16          19
Real atomic weights                        R   N=           4
  1.89984032E+01  1.20000000E+01  1.59949146E+01  1.89984032E+01
Atom fragment info                         I   N=           4
           0           0           0           0
Atom residue num                           I   N=           4
           0           0           0           0
Nuclear spins                              I   N=           4
           1           0           0           1
Nuclear ZEff                               R   N=           4
 -6.75000000E+00 -3.60000000E+00 -5.60000000E+00 -6.75000000E+00
Nuclear ZNuc                               R   N=           4
  9.00000000E+00  6.00000000E+00  8.00000000E+00  9.00000000E+00
Nuclear QMom                               R   N=           4
  0.00000000E+00  0.00000000E+00  0.00000000E+00  0.00000000E+00
Nuclear GFac                               R   N=           4
  2.62886700E+00  0.00000000E+00  0.00000000E+00  2.62886700E+00
MicOpt                                     I   N=           4
          -1          -1          -1          -1
Number of residues                         I                0
Number of secondary structures             I                0
SymInf integers                            I   N=          26
           1           1           1           1           1           0
           0           0           0           0           0           0
           0           0           0           0           0           0
           0           0           0           0           0           0
           0           0
RotTr to input orientation                 R   N=          12
 -9.96628933E-01 -8.13110968E-02  1.09213365E-02 -8.18734177E-02  9.94249018E-01
 -6.90335624E-02 -5.24533346E-03 -6.96950128E-02 -9.97554556E-01  1.88500181E-03
  3.50709547E-02 -3.44042357E-03
Number of contracted shells                I               16
Number of primitive shells                 I               44
Pure/Cartesian d shells                    I                1
Pure/Cartesian f shells                    I                0
Highest angular momentum                   I                2
Largest degree of contraction              I                6
Shell types                                I   N=          16
           0          -1          -1           2           0          -1
          -1           2           0          -1          -1           2
           0          -1          -1           2
Number of primitives per shell             I   N=          16
           6           3           1           1           6           3
           1           1           6           3           1           1
           6           3           1           1
Shell to atom map                          I   N=          16
           1           1           1           1           2           2
           2           2           3           3           3           3
           4           4           4           4
Primitive exponents                        R   N=          44
  7.00171309E+03  1.05136609E+03  2.39285690E+02  6.73974453E+01  2.15199573E+01
  7.40310130E+00  2.08479528E+01  4.80830834E+00  1.34406986E+00  3.58151393E-01
  8.00000000E-01  3.04752488E+03  4.57369518E+02  1.03948685E+02  2.92101553E+01
  9.28666296E+00  3.16392696E+00  7.86827235E+00  1.88128854E+00  5.44249258E-01
  1.68714478E-01  8.00000000E-01  5.48467166E+03  8.25234946E+02  1.88046958E+02
  5.29645000E+01  1.68975704E+01  5.79963534E+00  1.55396162E+01  3.59993359E+00
  1.01376175E+00  2.70005823E-01  8.00000000E-01  7.00171309E+03  1.05136609E+03
  2.39285690E+02  6.73974453E+01  2.15199573E+01  7.40310130E+00  2.08479528E+01
  4.80830834E+00  1.34406986E+00  3.58151393E-01  8.00000000E-01
Contraction coefficients                   R   N=          44
  1.81961690E-03  1.39160796E-02  6.84053245E-02  2.33185760E-01  4.71267439E-01
  3.56618546E-01 -1.08506975E-01 -1.46451658E-01  1.12868858E+00  1.00000000E+00
  1.00000000E+00  1.83473713E-03  1.40373228E-02  6.88426223E-02  2.32184443E-01
  4.67941348E-01  3.62311985E-01 -1.19332420E-01 -1.60854152E-01  1.14345644E+00
  1.00000000E+00  1.00000000E+00  1.83107443E-03  1.39501722E-02  6.84450781E-02
  2.32714336E-01  4.70192898E-01  3.58520853E-01 -1.10777550E-01 -1.48026263E-01
  1.13076702E+00  1.00000000E+00  1.00000000E+00  1.81961690E-03  1.39160796E-02
  6.84053245E-02  2.33185760E-01  4.71267439E-01  3.56618546E-01 -1.08506975E-01
 -1.46451658E-01  1.12868858E+00  1.00000000E+00  1.00000000E+00
P(S=P) Contraction coefficients            R   N=          44
  0.00000000E+00  0.00000000E+00  0.00000000E+00  0.00000000E+00  0.00000000E+00
  0.00000000E+00  7.16287242E-02  3.45912103E-01  7.22469956E-01  1.00000000E+00
  0.00000000E+00  0.00000000E+00  0.00000000E+00  0.00000000E+00  0.00000000E+00
  0.00000000E+00  0.00000000E+00  6.89990666E-02  3.16423961E-01  7.44308291E-01
  1.00000000E+00  0.00000000E+00  0.00000000E+00  0.00000000E+00  0.00000000E+00
  0.00000000E+00  0.00000000E+00  0.00000000E+00  7.08742682E-02  3.39752839E-01
  7.27158577E-01  1.00000000E+00  0.00000000E+00  0.00000000E+00  0.00000000E+00
  0.00000000E+00  0.00000000E+00  0.00000000E+00  0.00000000E+00  7.16287242E-02
  3.45912103E-01  7.22469956E-01  1.00000000E+00  0.00000000E+00
Coordinates of each shell                  R   N=          48
 -2.20283837E+00 -1.32441023E+00 -3.72743345E-02 -2.20283837E+00 -1.32441023E+00
 -3.72743345E-02 -2.20283837E+00 -1.32441023E+00 -3.72743345E-02 -2.20283837E+00
 -1.32441023E+00 -3.72743345E-02 -1.99176554E-01  1.04606115E-01  1.49066963E-01
 -1.99176554E-01  1.04606115E-01  1.49066963E-01 -1.99176554E-01  1.04606115E-01
  1.49066963E-01 -1.99176554E-01  1.04606115E-01  1.49066963E-01 -2.03988365E-01
  2.50619976E+00 -3.88636431E-02 -2.03988365E-01  2.50619976E+00 -3.88636431E-02
 -2.03988365E-01  2.50619976E+00 -3.88636431E-02 -2.03988365E-01  2.50619976E+00
 -3.88636431E-02  2.51694573E+00 -9.73060304E-01 -2.75581801E-02  2.51694573E+00
 -9.73060304E-01 -2.75581801E-02  2.51694573E+00 -9.73060304E-01 -2.75581801E-02
  2.51694573E+00 -9.73060304E-01 -2.75581801E-02
Num ILSW                                   I              100
ILSW                                       I   N=         100
           0           1           0           0           2           0
           0           0           0           0         402          -1
           5           0           0           0           0           0
           0           0           1           0           0           0
           1           0           0           0           0           0
           0           0      100000           0          -1           0
           0           0           0           0           0           0
           0           0           0           1           0           0
           0 -2000000000           1           0           0           0
           0           0           4          52           0           0
           0           0           5           0           0           0
           0           0           0           0           0           1
           0           0           0           0           0           0
           0           0           0           0           0           0
           0           0           0           0           0           0
           0           0           0           0           0           0
           0           0           0           0
Num RLSW                                   I               52
RLSW                                       R   N=          52
  8.00000000E-01  7.20000000E-01  1.00000000E+00  8.10000000E-01  2.00000000E-01
  0.00000000E+00  0.00000000E+00  1.00000000E+00  0.00000000E+00  0.00000000E+00
  0.00000000E+00  0.00000000E+00  1.00000000E+00  0.00000000E+00  0.00000000E+00
  0.00000000E+00  0.00000000E+00  1.00000000E+00  0.00000000E+00  0.00000000E+00
  0.00000000E+00  0.00000000E+00  1.00000000E+00  0.00000000E+00  0.00000000E+00
  0.00000000E+00  0.00000000E+00  1.00000000E+00  0.00000000E+00  0.00000000E+00
  0.00000000E+00  0.00000000E+00  1.00000000E+00  0.00000000E+00  0.00000000E+00
  0.00000000E+00  0.00000000E+00  0.00000000E+00  1.00000000E+00  1.00000000E+00
  0.00000000E+00  1.00000000E+00  0.00000000E+00  0.00000000E+00  0.00000000E+00
  0.00000000E+00  0.00000000E+00  0.00000000E+00  0.00000000E+00  0.00000000E+00
  0.00000000E+00  0.00000000E+00
MxBond                                     I                3
NBond                                      I   N=           4
           1           3           1           1
IBond                                      I   N=          12
           2           0           0           1           3           4
           2           0           0           2           0           0
RBond                                      R   N=          12
  1.00000000E+00  0.00000000E+00  0.00000000E+00  1.00000000E+00  2.00000000E+00
  1.00000000E+00  2.00000000E+00  0.00000000E+00  0.00000000E+00  1.00000000E+00
  0.00000000E+00  0.00000000E+00
Virial Ratio                               R      2.009414970307350E+00
SCF Energy                                 R     -3.129521152812005E+02
Total Energy                               R     -3.129521152812005E+02
RMS Density                                R      1.632071043891844E-09
Job Status                                 I                1
Nuclear derivative order                   I                0
External E-field                           R   N=          35
  0.00000000E+00  0.00000000E+00  0.00000000E+00  0.00000000E+00  0.00000000E+00
  0.00000000E+00  0.00000000E+00  0.00000000E+00  0.00000000E+00  0.00000000E+00
  0.00000000E+00  0.00000000E+00  0.00000000E+00  0.00000000E+00  0.00000000E+00
  0.00000000E+00  0.00000000E+00  0.00000000E+00  0.00000000E+00  0.00000000E+00
  0.00000000E+00  0.00000000E+00  0.00000000E+00  0.00000000E+00  0.00000000E+00
  0.00000000E+00  0.00000000E+00  0.00000000E+00  0.00000000E+00  0.00000000E+00
  0.00000000E+00  0.00000000E+00  0.00000000E+00  0.00000000E+00  0.00000000E+00
IOpCl                                      I                0
IROHF                                      I                0
Alpha Orbital Energies                     R   N=          60
 -2.48268823E+01 -2.47375214E+01 -1.92143417E+01 -1.04756775E+01 -1.34336798E+00
 -1.19385011E+00 -1.06367261E+00 -7.03380107E-01 -5.91500663E-01 -5.68931599E-01
 -5.44871893E-01 -4.64384050E-01 -4.46278276E-01 -4.29743160E-01 -3.81167967E-01
 -3.40312147E-01 -8.80110770E-02 -2.14210906E-02  1.81524809E-01  2.82355581E-01
  4.67408717E-01  4.75510132E-01  4.98268744E-01  5.46284667E-01  8.35797743E-01
  9.29992680E-01  9.35125011E-01  1.03959890E+00  1.07684493E+00  1.11775392E+00
  1.21797986E+00  1.25604734E+00  1.25984703E+00  1.33030736E+00  1.35502169E+00
  1.38783922E+00  1.52048008E+00  1.60272392E+00  1.72263713E+00  1.74814655E+00
  1.76553670E+00  1.77857035E+00  1.81412967E+00  1.82945374E+00  1.83550806E+00
  1.89010402E+00  1.94111233E+00  1.96205833E+00  2.10003855E+00  2.34275611E+00
  2.53247466E+00  2.55039015E+00  2.65315898E+00  2.81240752E+00  2.95683067E+00
  3.01262799E+00  3.68213749E+00  4.00246013E+00  4.18223775E+00  4.56738051E+00
Alpha MO coefficients                      R   N=        3600
  9.92972684E-01  1.94777215E-02  7.11222272E-04  4.46374683E-04  7.59177053E-05
  1.57427077E-02 -3.23252282E-04 -2.13675893E-04 -2.35884440E-05 -8.40572344E-03
 -8.23980489E-03 -8.08074089E-03 -2.70695383E-04 -3.47994996E-05 -2.52882141E-05
  1.46011062E-05  4.62549349E-04 -5.95409636E-04 -3.66888519E-04 -6.52823694E-05
 -5.61903855E-04  7.91030550E-04  6.22274738E-04  3.24851617E-05  2.54556347E-04
  1.60941298E-04 -4.73555164E-05  1.80629361E-04  2.16099208E-05  1.11608437E-05
  2.35695088E-05  1.55741351E-04  1.49803719E-05 -5.74615061E-06  2.37748170E-06
 -5.98003939E-04 -1.23751931E-04  2.35200306E-04 -2.90730514E-05  5.64514157E-05
 -4.22696534E-05  1.10616780E-04 -3.53230170E-05 -8.41476155E-06  7.22797581E-06
  2.11439667E-05  2.00747848E-04 -3.49849978E-05  2.42952261E-05  3.50701396E-06
 -6.29019148E-04  9.40320195E-05 -1.35243756E-04 -1.62309733E-05  1.09130771E-04
  1.46010763E-04  1.72399843E-04  1.64677970E-05  1.76133643E-06 -7.43238126E-06
  6.26714890E-05  2.80246383E-04  2.26621656E-05  3.55216137E-05  3.89026220E-06
 -8.83604711E-04 -1.17302673E-04 -2.87876953E-04 -3.19251136E-05  1.72923599E-04
  9.78696256E-05  2.56155575E-04 -9.11151082E-05 -9.42288886E-06 -2.77422933E-05
  3.10040549E-05 -2.28541616E-04  1.94984855E-04 -9.31426924E-05 -3.33068102E-05
 -2.78623818E-04 -6.98514155E-04  3.54005785E-04  5.49818379E-06  7.37619043E-04
  2.50303159E-04  1.18659415E-04 -2.07288411E-04 -2.90333638E-05  8.88943691E-06
  3.35700645E-05  1.98827971E-04  4.13013572E-06 -3.12731702E-05  2.76525976E-06
 -6.85268189E-04  9.81874548E-05  3.00086921E-04 -2.67512077E-05  6.03655494E-05
 -3.96909513E-08  1.72147133E-04 -6.86397812E-06  1.45411310E-05  1.39429533E-05
  9.93040640E-01  1.95535161E-02 -5.47472059E-04  1.37233684E-04  4.36137888E-05
  1.50793889E-02  9.21755359E-05 -9.52051374E-06 -2.98260748E-06 -8.16781298E-03
 -7.97081971E-03 -7.94707461E-03  1.04002452E-04  1.69158921E-05 -7.30023056E-06
  1.48231001E-05  9.28254360E-05  3.08987243E-05 -3.16142410E-05  8.83957483E-06
 -2.41330877E-04 -7.63964350E-05  1.90208101E-04 -3.19079043E-05  1.19760000E-04
 -3.32373627E-05  7.83141716E-05 -4.58504891E-06  6.35188762E-06  9.19489547E-06
  3.02513827E-05  6.37905680E-04  3.63747755E-05  1.57446055E-04 -1.18367157E-05
 -2.68472445E-03 -2.38831925E-05 -1.98193858E-03  1.63994893E-04  1.22368637E-05
 -5.14912090E-04  3.37948544E-05 -2.71538958E-05 -2.73001620E-06  4.95848128E-05
  9.92861758E-01  2.57948038E-02 -3.27274870E-05 -1.06621812E-03  9.98045571E-05
  1.18569062E-02  3.05002296E-05 -1.03943736E-03  7.36929497E-05 -7.83357282E-03
 -7.54576040E-03 -7.85167582E-03 -9.72474838E-06  1.21186588E-06 -2.45296727E-05
  1.08225498E-05  7.85129291E-05 -2.02190982E-05 -1.54778795E-05  4.03614762E-06
 -1.24747832E-04  7.95906785E-05  1.23679051E-04 -1.99657285E-05  2.21542673E-05
 -7.16647986E-06  9.22114892E-05  2.20493156E-05  6.97285167E-06  7.36183444E-06
  5.03862635E-05  8.32684148E-04  9.09290866E-05  7.32536183E-05  1.73980423E-05
 -2.96051378E-03 -1.89355171E-03 -1.36453852E-03 -2.17337434E-04 -2.98109992E-04
  2.87628995E-04  7.33502778E-04 -7.55384457E-04 -1.29138991E-04 -8.43998823E-05
  9.93080965E-01  4.55496508E-02 -1.07795004E-03 -1.45905418E-03 -1.31474058E-04
 -4.36636665E-03 -9.87372656E-04 -1.85175912E-04 -3.05991942E-05 -7.96377105E-03
 -8.11177772E-03 -9.24711086E-03  6.88711479E-04  8.07333393E-05  3.98465874E-05
 -1.64649435E-04 -1.41638506E-04 -5.01727808E-05 -1.54519719E-05 -4.77104702E-06
  5.25837064E-04  2.43761031E-04  5.36317085E-04 -4.79376033E-05 -1.26005294E-04
 -1.51732104E-04 -5.71852866E-05  2.80028355E-05 -5.00036860E-06  2.70051030E-05
 -8.30995240E-05 -2.18055014E-04 -9.93415162E-05  1.06237024E-05  5.77118442E-06
  1.35961592E-03  5.05667611E-04 -6.38546828E-05 -2.26838868E-05 -8.16327495E-04
 -1.78156827E-04 -7.46919336E-05  2.85303819E-04  5.87532204E-05 -1.93879916E-05
 -2.16497582E-01  4.93038887E-01  9.28067330E-02  6.37552678E-02  9.02143993E-03
  4.31542750E-01  4.35977490E-02  2.91179908E-02  4.19247312E-03  2.31267056E-02
  1.44015740E-02  9.73477884E-03  1.09870670E-02  1.63759030E-03  1.13184601E-03
 -7.49417151E-02  1.45479048E-01 -9.69229102E-02 -6.76942887E-02 -9.74206217E-03
  2.63735193E-02  8.28019115E-03  1.98546173E-04  2.31192035E-03  7.97580774E-03
 -2.32743830E-03 -1.54952982E-02  2.21637390E-02  2.52843421E-03  1.87761264E-03
 -1.59527010E-02  3.52550455E-02 -5.49379507E-03 -2.16492098E-02  8.06941761E-04
  2.98925440E-02 -5.91893110E-03 -1.28535252E-02 -2.63673150E-04 -1.23171254E-03
  5.98245073E-03 -4.31676544E-04  2.97685700E-03 -3.30073805E-04 -1.15554676E-04
 -1.84672231E-02  4.02943438E-02 -1.15876329E-02  2.20159976E-03  4.62132343E-04
  3.58499565E-02 -1.21344304E-02  4.92939518E-04 -1.41214985E-04  7.10170249E-03
 -2.63437981E-04 -3.23797958E-04 -1.73063357E-03 -3.07411865E-04  4.77843443E-05
  3.35525550E-02 -7.68535117E-02 -1.91956339E-04 -5.22494459E-03 -1.22884166E-03
 -7.47157543E-02  4.89475109E-03 -6.23807008E-04 -9.53598741E-04  1.25805870E-03
 -1.85337660E-03 -2.05879614E-03  8.84744288E-04 -5.12560352E-05 -7.55139901E-05
 -4.31697702E-02  8.94205133E-02  8.51304217E-02  7.16708194E-03 -4.32190660E-03
  2.80943658E-02 -1.75037194E-04 -7.98918641E-03  1.09337678E-03  1.48716738E-03
 -2.06091703E-03 -6.66226745E-03 -1.20825320E-02 -1.49858222E-03 -4.10254321E-04
 -2.90662325E-02  6.30576856E-02  8.35629362E-03 -2.99389117E-02  1.75317708E-03
  5.87625467E-02  6.02574770E-03 -1.31782751E-02  4.88487025E-04 -1.49503619E-03
  3.88984306E-03 -1.35274507E-03 -2.46944880E-03  1.46774863E-04 -4.00247883E-04
 -2.23794394E-01  4.99064239E-01 -5.84723999E-02  2.08056331E-02  3.99045959E-03
  4.89089915E-01 -4.06929380E-02  1.38432060E-02  2.75960553E-03  2.30822899E-02
  6.52881225E-03  5.67223482E-03 -7.14332840E-03 -1.53433443E-03  5.42031084E-04
  3.42253030E-02 -7.83045924E-02  1.75229950E-03  2.58178247E-02 -1.15490609E-03
 -8.10493324E-02  5.33494934E-03  2.14308613E-02 -8.17243994E-04 -6.69613790E-04
  3.07932157E-03 -1.68638587E-03  5.02477554E-03 -1.44001105E-04  3.63886871E-04
 -8.71904402E-02  1.90347410E-01 -2.41457558E-03  2.13953772E-01 -1.22033684E-02
  3.35870146E-02 -2.28227626E-04 -1.15847172E-02  2.74758120E-03 -2.45158494E-02
  2.24725030E-02 -1.33150288E-02 -3.77645619E-03 -1.76276499E-04 -4.29581481E-03
 -1.95401524E-01  4.35437428E-01 -2.64517895E-03 -1.50710328E-01  1.19186303E-02
  4.04160547E-01 -2.71501605E-03 -5.73781150E-02  4.21646136E-03 -9.33976691E-03
  1.08326416E-02 -5.23618534E-03  3.57308602E-04 -1.76499457E-05 -1.82209070E-03
  5.22577752E-02 -1.16597183E-01 -4.19150562E-03  1.35474564E-02 -4.19330689E-04
 -1.25988379E-01 -2.53807636E-03  1.04405398E-02 -6.47723514E-04  1.30248709E-04
  2.91272907E-05 -1.17656033E-03 -2.45243430E-03  6.62557730E-05  1.12793011E-04
  8.42064140E-02 -1.76053704E-01  4.07432658E-01  2.46543811E-01  4.00931063E-02
 -3.02146637E-01  2.28726400E-01  1.35113739E-01  2.23742210E-02  2.23302921E-02
  5.89699501E-03 -6.90055934E-04  1.50392861E-02  2.77506783E-03  1.58047307E-03
 -1.19524013E-01  2.90799086E-01 -1.18354430E-01 -1.82529939E-01 -5.27055712E-03
  1.63922264E-01  8.98474736E-03 -1.72353035E-02  4.41368842E-03  3.89044931E-03
 -1.16023127E-02 -1.35631761E-02  1.52325434E-02  1.46654952E-03  2.23621000E-03
  5.56306001E-02 -1.24141019E-01 -2.08127298E-02 -5.26749147E-02  1.06236955E-03
 -1.64085926E-01 -1.61284465E-02 -2.89432122E-02 -3.56198642E-04  9.83517635E-04
  1.09402107E-02  1.35548719E-03  4.12720979E-03 -4.35828892E-04 -1.44247891E-04
  3.14775086E-02 -6.36562789E-02 -1.10844430E-01  1.24440776E-02  6.34380444E-03
 -1.14892348E-01 -6.96216424E-02  2.71822784E-03  3.05123659E-03  1.51609069E-02
  4.64740517E-04  1.40238397E-03 -2.01982844E-03 -7.57186397E-04  2.05748149E-05
  1.27389111E-02 -2.01961334E-02 -3.55712730E-02  3.82434063E-01  3.51927453E-02
 -5.68961627E-02 -3.54301263E-02  2.32275026E-01  2.21843614E-02 -1.00100511E-02
  1.73970149E-02  1.81968211E-03  8.92712660E-03  7.68843851E-04  2.33747104E-03
  4.84966557E-02 -1.16109336E-01 -3.18553229E-01  6.94946996E-02  2.91648308E-03
 -1.00156401E-01 -7.01223370E-02  6.57688578E-02  5.60076935E-04  1.16077353E-02
 -5.03428745E-03  6.55442374E-04  9.24226785E-03  2.54416343E-03 -8.48189992E-04
 -1.38261897E-02  3.61459051E-02 -1.27390571E-01  3.59945049E-02 -6.11184349E-04
  1.60849750E-02 -7.25196942E-02  2.75739244E-02 -2.42812016E-03  2.75776177E-03
 -2.21926913E-03  1.02893327E-03  1.26852138E-02 -9.59791471E-04  6.74493104E-05
 -5.41158747E-02  1.02163796E-01  3.29119886E-01 -1.33098383E-01 -2.26519800E-02
  2.19972032E-01  1.97292260E-01 -8.20518110E-02 -1.35190343E-02 -2.37906046E-02
 -8.38167008E-03 -5.12205748E-03  7.75859151E-03  1.56646246E-03 -6.91229288E-04
 -4.10465883E-04  2.99329713E-05 -4.02230521E-02 -4.40987273E-02  5.61486678E-01
  1.78675653E-03 -2.47955603E-02 -2.64641822E-02  3.60364774E-01 -2.71517770E-03
 -1.91249853E-03  3.78329920E-03 -2.19223544E-03  2.35628617E-02  1.54133511E-02
 -6.31814552E-03  1.54370889E-02  4.76820012E-03 -3.87605933E-03  2.71754041E-01
  7.32631301E-03 -7.37741832E-03 -1.26662237E-02  1.32980296E-01  5.51552957E-04
  1.26424867E-03 -3.78289886E-03  1.09678140E-03 -1.77760053E-02 -9.27017648E-03
 -2.97046013E-03  2.91692926E-03  4.58806881E-03  1.69248265E-02  1.22797474E-01
  2.72003438E-02  5.82365306E-03  1.52621385E-03  5.67692709E-02 -1.39809921E-03
 -2.85952940E-03 -5.31498475E-06 -6.86944146E-04 -9.80034193E-04 -1.08627437E-02
  1.82658835E-04 -3.33899672E-03  1.86489640E-03  7.91736088E-05  1.02248647E-01
  6.75119029E-03 -5.97285603E-04  3.44577336E-03  6.07109613E-02 -1.58574802E-03
 -9.98253863E-04 -9.05351473E-04 -4.79425333E-04 -5.49914727E-03  1.13991947E-03
  5.92685925E-03 -5.41289756E-03  3.51560628E-01 -2.58600261E-01  1.26315887E-02
 -3.65399356E-02  2.13984319E-01 -1.70158754E-01  7.20803729E-03  1.74776182E-02
 -1.04745775E-02  1.38716875E-03 -5.53018699E-03  1.24679001E-03 -1.14710147E-03
  6.14909451E-02 -1.60520054E-01 -8.59500279E-02 -2.12111940E-01 -7.15152525E-03
 -1.40357874E-01  1.03238606E-02 -9.23247468E-02 -4.66400649E-03 -6.41506363E-03
  1.94597387E-02  3.08765431E-03  1.62081469E-02  5.14352843E-04  1.90795147E-03
 -9.30738068E-02  1.94965171E-01 -2.10093208E-02  3.05250362E-01 -3.07304541E-02
  3.99989662E-01 -1.57174314E-02  1.27828734E-01 -1.18314367E-02 -6.88323545E-03
 -2.62092149E-02 -2.97891573E-03  3.53089561E-03 -4.29763773E-04  2.69227488E-03
 -1.52161400E-02  3.25718166E-02  1.12764580E-01 -1.47410966E-01 -1.68130747E-02
  4.68978923E-02  7.68265994E-02 -9.53952668E-02 -1.22793637E-02 -5.56251980E-03
 -1.60592733E-03 -2.77792374E-05  8.25956267E-03  1.16649895E-03 -7.19267429E-04
  1.91941320E-05  6.59274968E-03 -2.06522194E-01  3.34136841E-01  1.13766687E-02
 -1.75542012E-02 -1.43494863E-01  2.14765322E-01  7.04925108E-03 -5.28405150E-03
  9.38717108E-03  2.64199686E-03  1.64515888E-03 -4.66503499E-04  7.25107582E-04
  2.97415650E-02 -8.60470819E-02  8.41520270E-02 -2.42460604E-01 -5.02614041E-03
 -3.56205655E-03 -1.08826808E-02 -1.99633936E-03 -5.72853217E-03  3.28854439E-02
 -1.86336805E-02  2.65016473E-03 -1.01905536E-02 -8.15220982E-05 -5.21744832E-05
 -5.46486283E-02  1.17696635E-01  2.13798230E-02  3.71936568E-01 -4.96134600E-02
  2.09677771E-01  1.33103777E-02  2.03937296E-01 -3.03188482E-02  2.41485104E-03
 -2.10688365E-02  1.40453570E-03 -3.90112729E-03  4.73333386E-04  3.61565002E-03
  1.33680076E-02 -2.68124637E-02 -3.25779315E-01  2.16070368E-02  2.24412631E-02
 -3.91679908E-02 -2.23087456E-01  1.48961761E-02  1.66876764E-02  1.36086666E-02
 -2.36672401E-03 -8.06420741E-04 -1.53389906E-03 -1.48513932E-03 -6.29843686E-05
 -7.07055609E-04 -3.23242416E-03  1.26323494E-02  1.04839345E-02 -2.73589731E-01
  1.51198549E-02  1.06071393E-02  1.22848202E-02 -2.01393906E-01 -1.53700121E-03
 -9.96870937E-04 -3.45857481E-03  7.75015924E-04 -6.09172662E-03 -4.49723040E-03
 -4.20782848E-03  9.06041081E-03 -1.82944552E-03 -2.91554603E-03  1.73620683E-01
  8.76618363E-03  1.31984170E-02 -6.35035974E-03  1.11857864E-01 -1.30611794E-03
  6.57485861E-04 -1.45430037E-03 -3.48532901E-03  2.16460650E-02  9.91270061E-03
 -1.80820640E-03  1.89541341E-03 -1.87765683E-02  2.55020666E-02  1.87705978E-01
  1.65974541E-02 -1.92085443E-02  1.06899102E-02  1.10507156E-01 -9.96470928E-04
 -2.42647666E-03  1.01294423E-03  1.97758691E-03  1.81164741E-03 -1.24648025E-02
  2.89250131E-04  7.78657970E-04  2.22044427E-02 -5.71840255E-02  5.40780247E-01
 -6.13433378E-03  1.59473429E-02 -4.07351600E-02  3.72506551E-01 -3.45627272E-04
 -5.02124757E-04  2.62480053E-03  2.00263639E-03 -1.69631699E-02  5.76107755E-03
 -8.42073360E-03  3.96522532E-04  1.00249815E-01  6.71930965E-02 -5.21648295E-03
  1.08303213E-01  8.16936949E-02  4.73044910E-02 -7.06709923E-04 -7.04001743E-03
 -1.14021916E-02 -7.93984244E-03  1.85044870E-03  1.81279833E-04 -3.72267082E-04
  1.58187848E-02 -3.95539650E-02  1.62441600E-02 -5.73216605E-02  3.42255054E-03
 -1.90530765E-02  7.15318645E-02  1.28043600E-01  4.32529441E-03  1.69019874E-02
 -1.03609669E-02  1.07579477E-04  2.46052639E-02  1.44880198E-03 -3.74741541E-04
 -8.00316131E-03  2.78222880E-02  1.40453946E-01  1.24689659E-01 -1.12485638E-02
 -4.19007343E-02  9.02628108E-02  9.45959146E-02 -1.33291938E-02  7.72029611E-03
 -4.04961224E-03  3.76589377E-03 -7.15057234E-03  5.47889215E-04  1.24775477E-03
 -7.20755925E-04  7.73090212E-03  2.34549425E-01  5.76622660E-01  5.06883119E-02
 -1.22324676E-02  1.62355841E-01  3.84257186E-01  3.45736548E-02 -6.73634185E-03
  9.86634780E-03  3.50910654E-03 -1.07666323E-02 -8.95751780E-04  1.32626961E-03
 -4.14782146E-04  1.23891835E-03  9.01150328E-03  2.16454540E-02 -1.89641845E-01
  2.30741778E-03  8.90545252E-03  1.05554222E-02 -1.35798952E-01  5.51600764E-04
 -2.76303523E-04 -1.75671121E-04 -1.79763132E-04 -2.06977765E-03  1.42001591E-03
 -4.13399202E-03  6.14968973E-03 -4.11743225E-04 -8.31667589E-03  2.38104452E-01
  3.95751983E-02 -2.50383310E-03  2.49479662E-02  8.10178595E-02 -3.40640636E-05
  1.03630025E-03 -1.68454917E-03  5.87570656E-04 -4.85960719E-03  3.45837517E-02
 -3.12164015E-04  3.76223517E-03  7.07963481E-03  7.20313657E-02  4.85418753E-01
 -1.91725393E-02  6.15064368E-03  5.40502972E-02  3.30156393E-01  1.75594634E-03
 -4.59306160E-03  5.73274268E-03 -6.60156975E-04 -1.41471665E-03 -2.87509993E-02
 -3.27227019E-04  4.03346358E-04 -1.84323654E-02  2.52673097E-02 -3.53525548E-01
  2.47238498E-03 -1.44039950E-02  1.46642614E-02 -2.50935648E-01  8.54508899E-04
 -3.17491905E-04 -9.79533977E-04  6.94052239E-05  6.13289564E-03  3.52750819E-04
 -9.56611698E-03  1.76421316E-02  2.33275069E-02  1.44082623E-01  5.80260306E-03
  7.58790658E-02  2.37366960E-02  1.11129345E-01  5.99167108E-03 -4.47025396E-03
 -1.27560876E-03 -1.78558728E-03  3.93914892E-03 -3.09548564E-04  4.29923127E-04
 -2.81586001E-03  1.14801419E-02  7.51286018E-02  9.70983278E-03 -3.23400464E-03
 -3.62440059E-02  1.00637887E-01 -1.20036191E-02  1.53419025E-03 -6.41269362E-03
  2.32876722E-03 -3.59211746E-04  3.94321523E-02 -6.84645374E-04  2.35443101E-04
 -1.76399578E-03  6.22244464E-03  6.05760992E-01 -2.63836497E-02  4.42278957E-03
  1.38294001E-02  3.95019906E-01 -2.13878572E-02  3.40275866E-03 -2.44700355E-03
  3.07812178E-03  1.05287908E-03 -2.54742791E-02  2.43215488E-03 -2.32068333E-04
  7.90472061E-03 -1.74807359E-02  1.14270390E-01 -2.50212397E-01 -3.69876784E-03
 -5.31266910E-02  9.69920647E-02 -1.76952457E-01 -5.00748516E-03 -5.33881808E-03
  2.39799684E-03  6.52516780E-04  5.44263387E-03  5.72350445E-04 -5.47509726E-04
  2.36391743E-02 -4.96755108E-02 -1.32087171E-01 -3.43249940E-02 -2.07103975E-01
 -1.77994658E-01 -1.30589326E-01 -4.72296842E-02 -1.72262742E-01  4.21750311E-03
 -8.93831599E-04  8.23686253E-03 -2.49567944E-03  1.19210620E-02  5.71255857E-03
 -8.07360460E-02  1.62300759E-01  8.39643380E-02 -1.38123428E-01  5.19477504E-01
  5.60787778E-01  9.19604059E-03 -5.51874089E-02  3.46919221E-01 -2.05964002E-02
 -1.43597689E-02  1.40870435E-02 -4.35402000E-03  5.36098094E-04 -2.09192795E-02
  1.40189681E-02 -2.95889235E-02 -3.01579395E-02  7.04576101E-02 -3.66025358E-01
 -1.21086173E-01 -2.49292259E-02  8.82252367E-02 -3.33568870E-01  2.11440155E-03
 -2.85747282E-03  7.13318172E-03 -1.17949465E-03  8.14966990E-04 -2.21302131E-03
  2.32662653E-02 -5.32299766E-02  1.89949723E-01 -4.03640927E-02 -1.59562305E-01