CF2O Time step 5                                                        
SP        RB3LYP                                                      6-31G(d)            
Number of atoms                            I                4
Info1-9                                    I   N=           9
          13          13           0           0           0         110
           1          18        -502
Full Title                                 C   N=           2
CF2O Time step 5        
Route                                      C   N=           4
# B3LYP/6-31G(d) pop=full density=current       
Charge                                     I                0
Multiplicity                               I                1
Number of electrons                        I               32
Number of alpha electrons                  I               16
Number of beta electrons                   I               16
Number of basis functions                  I               60
Number of independent functions            I               60
Number of point charges in /Mol/           I                0
Number of translation vectors              I                0
Atomic numbers                             I   N=           4
           9           6           8           9
Nuclear charges                            R   N=           4
  9.00000000E+00  6.00000000E+00  8.00000000E+00  9.00000000E+00
Current cartesian coordinates              R   N=          12
 -2.18430067E+00 -1.17083977E+00 -5.22085221E-03 -3.39630365E-02  1.19941739E-01
  2.34369638E-02 -4.74683260E-02  2.45332613E+00 -6.13604998E-03  2.24913676E+00
 -1.08985572E+00 -4.94952365E-03
Number of symbols in /Mol/                 I                0
Int Atom Types                             I   N=           4
           0           0           0           0
Force Field                                I                0
Atom Types                                 C   N=           4
                                                
MM charges                                 R   N=           4
  0.00000000E+00  0.00000000E+00  0.00000000E+00  0.00000000E+00
Integer atomic weights                     I   N=           4
          19          12          16          19
Real atomic weights                        R   N=           4
  1.89984032E+01  1.20000000E+01  1.59949146E+01  1.89984032E+01
Atom fragment info                         I   N=           4
           0           0           0           0
Atom residue num                           I   N=           4
           0           0           0           0
Nuclear spins                              I   N=           4
           1           0           0           1
Nuclear ZEff                               R   N=           4
 -6.75000000E+00 -3.60000000E+00 -5.60000000E+00 -6.75000000E+00
Nuclear ZNuc                               R   N=           4
  9.00000000E+00  6.00000000E+00  8.00000000E+00  9.00000000E+00
Nuclear QMom                               R   N=           4
  0.00000000E+00  0.00000000E+00  0.00000000E+00  0.00000000E+00
Nuclear GFac                               R   N=           4
  2.62886700E+00  0.00000000E+00  0.00000000E+00  2.62886700E+00
MicOpt                                     I   N=           4
          -1          -1          -1          -1
Number of residues                         I                0
Number of secondary structures             I                0
SymInf integers                            I   N=          26
           1           1           1           1           1           0
           0           0           0           0           0           0
           0           0           0           0           0           0
           0           0           0           0           0           0
           0           0
RotTr to input orientation                 R   N=          12
 -9.99859787E-01 -1.61419692E-02  4.45460595E-03 -1.64139882E-02  9.97418875E-01
 -6.99011357E-02 -3.31476608E-03 -6.99644525E-02 -9.97543978E-01  4.19460146E-04
  3.43079778E-02 -2.56140565E-03
Number of contracted shells                I               16
Number of primitive shells                 I               44
Pure/Cartesian d shells                    I                1
Pure/Cartesian f shells                    I                0
Highest angular momentum                   I                2
Largest degree of contraction              I                6
Shell types                                I   N=          16
           0          -1          -1           2           0          -1
          -1           2           0          -1          -1           2
           0          -1          -1           2
Number of primitives per shell             I   N=          16
           6           3           1           1           6           3
           1           1           6           3           1           1
           6           3           1           1
Shell to atom map                          I   N=          16
           1           1           1           1           2           2
           2           2           3           3           3           3
           4           4           4           4
Primitive exponents                        R   N=          44
  7.00171309E+03  1.05136609E+03  2.39285690E+02  6.73974453E+01  2.15199573E+01
  7.40310130E+00  2.08479528E+01  4.80830834E+00  1.34406986E+00  3.58151393E-01
  8.00000000E-01  3.04752488E+03  4.57369518E+02  1.03948685E+02  2.92101553E+01
  9.28666296E+00  3.16392696E+00  7.86827235E+00  1.88128854E+00  5.44249258E-01
  1.68714478E-01  8.00000000E-01  5.48467166E+03  8.25234946E+02  1.88046958E+02
  5.29645000E+01  1.68975704E+01  5.79963534E+00  1.55396162E+01  3.59993359E+00
  1.01376175E+00  2.70005823E-01  8.00000000E-01  7.00171309E+03  1.05136609E+03
  2.39285690E+02  6.73974453E+01  2.15199573E+01  7.40310130E+00  2.08479528E+01
  4.80830834E+00  1.34406986E+00  3.58151393E-01  8.00000000E-01
Contraction coefficients                   R   N=          44
  1.81961690E-03  1.39160796E-02  6.84053245E-02  2.33185760E-01  4.71267439E-01
  3.56618546E-01 -1.08506975E-01 -1.46451658E-01  1.12868858E+00  1.00000000E+00
  1.00000000E+00  1.83473713E-03  1.40373228E-02  6.88426223E-02  2.32184443E-01
  4.67941348E-01  3.62311985E-01 -1.19332420E-01 -1.60854152E-01  1.14345644E+00
  1.00000000E+00  1.00000000E+00  1.83107443E-03  1.39501722E-02  6.84450781E-02
  2.32714336E-01  4.70192898E-01  3.58520853E-01 -1.10777550E-01 -1.48026263E-01
  1.13076702E+00  1.00000000E+00  1.00000000E+00  1.81961690E-03  1.39160796E-02
  6.84053245E-02  2.33185760E-01  4.71267439E-01  3.56618546E-01 -1.08506975E-01
 -1.46451658E-01  1.12868858E+00  1.00000000E+00  1.00000000E+00
P(S=P) Contraction coefficients            R   N=          44
  0.00000000E+00  0.00000000E+00  0.00000000E+00  0.00000000E+00  0.00000000E+00
  0.00000000E+00  7.16287242E-02  3.45912103E-01  7.22469956E-01  1.00000000E+00
  0.00000000E+00  0.00000000E+00  0.00000000E+00  0.00000000E+00  0.00000000E+00
  0.00000000E+00  0.00000000E+00  6.89990666E-02  3.16423961E-01  7.44308291E-01
  1.00000000E+00  0.00000000E+00  0.00000000E+00  0.00000000E+00  0.00000000E+00
  0.00000000E+00  0.00000000E+00  0.00000000E+00  7.08742682E-02  3.39752839E-01
  7.27158577E-01  1.00000000E+00  0.00000000E+00  0.00000000E+00  0.00000000E+00
  0.00000000E+00  0.00000000E+00  0.00000000E+00  0.00000000E+00  7.16287242E-02
  3.45912103E-01  7.22469956E-01  1.00000000E+00  0.00000000E+00
Coordinates of each shell                  R   N=          48
 -2.18430067E+00 -1.17083977E+00 -5.22085221E-03 -2.18430067E+00 -1.17083977E+00
 -5.22085221E-03 -2.18430067E+00 -1.17083977E+00 -5.22085221E-03 -2.18430067E+00
 -1.17083977E+00 -5.22085221E-03 -3.39630365E-02  1.19941739E-01  2.34369638E-02
 -3.39630365E-02  1.19941739E-01  2.34369638E-02 -3.39630365E-02  1.19941739E-01
  2.34369638E-02 -3.39630365E-02  1.19941739E-01  2.34369638E-02 -4.74683260E-02
  2.45332613E+00 -6.13604998E-03 -4.74683260E-02  2.45332613E+00 -6.13604998E-03
 -4.74683260E-02  2.45332613E+00 -6.13604998E-03 -4.74683260E-02  2.45332613E+00
 -6.13604998E-03  2.24913676E+00 -1.08985572E+00 -4.94952365E-03  2.24913676E+00
 -1.08985572E+00 -4.94952365E-03  2.24913676E+00 -1.08985572E+00 -4.94952365E-03
  2.24913676E+00 -1.08985572E+00 -4.94952365E-03
Num ILSW                                   I              100
ILSW                                       I   N=         100
           0           1           0           0           2           0
           0           0           0           0         402          -1
           5           0           0           0           0           0
           0           0           1           0           0           0
           1           0           0           0           0           0
           0           0      100000           0          -1           0
           0           0           0           0           0           0
           0           0           0           1           0           0
           0 -2000000000           1           0           0           0
           0           0           4          52           0           0
           0           0           5           0           0           0
           0           0           0           0           0           1
           0           0           0           0           0           0
           0           0           0           0           0           0
           0           0           0           0           0           0
           0           0           0           0           0           0
           0           0           0           0
Num RLSW                                   I               52
RLSW                                       R   N=          52
  8.00000000E-01  7.20000000E-01  1.00000000E+00  8.10000000E-01  2.00000000E-01
  0.00000000E+00  0.00000000E+00  1.00000000E+00  0.00000000E+00  0.00000000E+00
  0.00000000E+00  0.00000000E+00  1.00000000E+00  0.00000000E+00  0.00000000E+00
  0.00000000E+00  0.00000000E+00  1.00000000E+00  0.00000000E+00  0.00000000E+00
  0.00000000E+00  0.00000000E+00  1.00000000E+00  0.00000000E+00  0.00000000E+00
  0.00000000E+00  0.00000000E+00  1.00000000E+00  0.00000000E+00  0.00000000E+00
  0.00000000E+00  0.00000000E+00  1.00000000E+00  0.00000000E+00  0.00000000E+00
  0.00000000E+00  0.00000000E+00  0.00000000E+00  1.00000000E+00  1.00000000E+00
  0.00000000E+00  1.00000000E+00  0.00000000E+00  0.00000000E+00  0.00000000E+00
  0.00000000E+00  0.00000000E+00  0.00000000E+00  0.00000000E+00  0.00000000E+00
  0.00000000E+00  0.00000000E+00
MxBond                                     I                3
NBond                                      I   N=           4
           1           3           1           1
IBond                                      I   N=          12
           2           0           0           1           3           4
           2           0           0           2           0           0
RBond                                      R   N=          12
  1.00000000E+00  0.00000000E+00  0.00000000E+00  1.00000000E+00  2.00000000E+00
  1.00000000E+00  2.00000000E+00  0.00000000E+00  0.00000000E+00  1.00000000E+00
  0.00000000E+00  0.00000000E+00
Virial Ratio                               R      2.008440423698117E+00
SCF Energy                                 R     -3.129911888773953E+02
Total Energy                               R     -3.129911888773953E+02
RMS Density                                R      3.899979947892137E-09
Job Status                                 I                1
Nuclear derivative order                   I                0
External E-field                           R   N=          35
  0.00000000E+00  0.00000000E+00  0.00000000E+00  0.00000000E+00  0.00000000E+00
  0.00000000E+00  0.00000000E+00  0.00000000E+00  0.00000000E+00  0.00000000E+00
  0.00000000E+00  0.00000000E+00  0.00000000E+00  0.00000000E+00  0.00000000E+00
  0.00000000E+00  0.00000000E+00  0.00000000E+00  0.00000000E+00  0.00000000E+00
  0.00000000E+00  0.00000000E+00  0.00000000E+00  0.00000000E+00  0.00000000E+00
  0.00000000E+00  0.00000000E+00  0.00000000E+00  0.00000000E+00  0.00000000E+00
  0.00000000E+00  0.00000000E+00  0.00000000E+00  0.00000000E+00  0.00000000E+00
IOpCl                                      I                0
IROHF                                      I                0
Alpha Orbital Energies                     R   N=          60
 -2.47938579E+01 -2.47778657E+01 -1.91929039E+01 -1.04613195E+01 -1.32105766E+00
 -1.26741578E+00 -1.07097990E+00 -6.90856982E-01 -6.21226548E-01 -5.62780051E-01
 -5.36438766E-01 -4.82068203E-01 -4.74619608E-01 -4.55060383E-01 -3.79449832E-01
 -3.33848959E-01 -4.18695933E-02  3.72333753E-02  2.48382283E-01  3.05190588E-01
  4.64639766E-01  4.73625581E-01  4.77430751E-01  5.75229520E-01  8.38731680E-01
  9.43782506E-01  9.50925160E-01  1.04112654E+00  1.09355693E+00  1.11779002E+00
  1.22261785E+00  1.26484250E+00  1.27881142E+00  1.33570950E+00  1.35613955E+00
  1.37043140E+00  1.58864364E+00  1.63641927E+00  1.74821942E+00  1.76124678E+00
  1.77673941E+00  1.79578209E+00  1.80232838E+00  1.84332321E+00  1.89526974E+00
  1.91765294E+00  1.94794941E+00  2.06911929E+00  2.11106132E+00  2.52371100E+00
  2.58237530E+00  2.68770605E+00  2.73301974E+00  2.94514256E+00  3.01045205E+00
  3.05233084E+00  3.73823407E+00  4.14114818E+00  4.39734005E+00  4.60516970E+00
Alpha MO coefficients                      R   N=        3600
  9.92981419E-01  1.95382034E-02  7.21363925E-04  3.53359414E-04  1.15467516E-05
  1.55423352E-02 -3.72160799E-04 -1.76458447E-04 -4.00476126E-06 -8.42322421E-03
 -8.16956289E-03 -8.04132364E-03 -2.62370446E-04 -5.86950565E-06 -3.49281589E-06
  2.25229913E-05  3.98832725E-04 -5.65232604E-04 -3.24912214E-04 -1.10169002E-05
 -4.73395111E-04  8.13039162E-04  4.46243638E-04  3.20854091E-06  4.13201983E-04
  2.24470760E-04 -2.46125086E-05  1.79137944E-04  3.87513580E-06  2.28281095E-06
  1.82592811E-05  1.41189634E-04  2.01418016E-05  1.98532310E-05 -6.60728001E-08
 -4.95939400E-04 -1.22441371E-04  2.40755129E-04 -3.70487394E-06  2.64282834E-05
 -8.93142872E-05  1.01710209E-04 -4.24507489E-05 -1.53108160E-06  1.88782016E-06
  4.58642952E-05  2.76103257E-04 -3.39990642E-05  2.67424429E-05  6.10691152E-07
 -8.26142825E-04  1.77366986E-04 -1.82433114E-04 -3.75884050E-06  5.56355907E-05
  1.67075292E-04  2.21330217E-04  3.96372327E-05  9.92489468E-07 -1.97599530E-06
  4.32104008E-05  3.03535361E-04  3.18909110E-05  2.89432022E-05  6.14854892E-07
 -9.20490948E-04 -1.95440272E-04 -2.24771810E-04 -4.44106257E-06  7.50541437E-05
  1.59888632E-04  2.48993905E-04 -6.54862628E-05 -1.37638711E-06 -2.86304149E-06
  2.08387130E-05  2.44478115E-04  5.12227836E-04 -2.72851084E-04 -1.04557265E-05
 -3.76502856E-04 -7.93253260E-04  3.85760362E-04  1.92059577E-06  5.63533520E-04
  2.64973384E-04  6.85729188E-06 -2.19675551E-04 -4.81533126E-06  2.65443289E-06
  2.07541134E-05  1.55661484E-04 -1.49833702E-05  1.68213386E-05 -1.24783755E-07
 -5.40587275E-04  1.19450738E-04  2.73482008E-04 -3.91661550E-06  2.72734021E-05
 -8.86960118E-05  1.18100220E-04  2.54856408E-05  1.95618624E-06  2.53946472E-06
  9.92997080E-01  1.95684812E-02 -6.96161937E-04  2.85995376E-04  1.05290531E-05
  1.53686178E-02  3.62541945E-04 -1.44811413E-04 -3.61385040E-06 -8.40229404E-03
 -8.10381556E-03 -8.00275547E-03  2.42949969E-04  5.76753536E-06 -3.03912226E-06
  6.76474628E-06  4.89375387E-05  1.62676732E-05 -4.29308141E-05  1.25205263E-06
 -8.31399274E-05 -6.00493166E-05  1.94957823E-04 -5.01758775E-06  8.42842647E-05
 -8.62611071E-05  4.69433446E-05 -2.91403852E-05  8.93041913E-07  1.29560433E-06
  3.65773845E-05  6.39204708E-04  1.26218062E-05  9.79554986E-06 -3.17083826E-08
 -3.09975225E-03  4.92649700E-06 -2.21574014E-03  3.10187150E-05  1.17779202E-05
 -7.48112865E-04  4.21674661E-05 -6.11229477E-06 -1.17396498E-07  1.12710735E-05
  9.92818188E-01  2.58079854E-02  5.97716452E-07 -1.19657732E-03  1.88585373E-05
  1.25654384E-02  1.44155270E-05 -1.26771888E-03  1.40741693E-05 -7.94542575E-03
 -7.49754803E-03 -7.96166489E-03 -6.53102070E-06  9.88898172E-08 -6.30194949E-06
  5.47500302E-06  4.54537314E-05 -1.13867820E-05 -3.97480969E-05  1.05276333E-06
 -5.69228796E-05  6.91821790E-05  1.80830007E-04 -4.79357578E-06  5.03172785E-05
 -7.93806778E-05  5.00390533E-05  3.89109465E-05 -1.41631604E-07  1.16713779E-06
  3.19914681E-05  6.66215767E-04  1.15215544E-04  5.65491537E-05  1.80217405E-06
 -2.20282980E-03 -1.81204544E-03 -1.00670122E-03 -2.48673664E-05 -4.46152249E-04
  2.75878768E-04  6.14147945E-04 -6.39075127E-04 -1.86206871E-05 -1.05241113E-05
  9.93005734E-01  4.60525909E-02 -2.32332123E-04 -1.50962871E-03 -2.41662877E-05
 -3.37014632E-03 -2.04906703E-04 -3.34294050E-05 -1.68988910E-05 -7.65301313E-03
 -8.15705107E-03 -9.50410797E-03  1.49380153E-04  2.53868816E-06  7.04496482E-06
 -1.93021508E-04 -5.95672647E-06 -1.12146658E-05 -9.02832510E-05 -2.80432425E-07
 -2.40101860E-04  4.62778743E-05  8.61272542E-04 -1.00781180E-05 -9.13663031E-05
 -3.71976520E-05 -4.50763187E-06  9.38024818E-06 -2.18348958E-07  4.19834936E-06
  9.34957961E-06  4.47787264E-04 -1.17603720E-04  4.21789939E-05  1.48577812E-06
 -1.25656435E-03  1.53584281E-03 -7.00844939E-04 -1.81739579E-05 -5.66587272E-04
  1.92794291E-04  4.48954184E-04  5.41086442E-04  1.64595102E-05 -8.13891009E-06
 -1.85873160E-01  4.20391514E-01  8.60425794E-02  4.64325348E-02  1.12839330E-03
  3.75297655E-01  4.62965254E-02  2.21351818E-02  5.26538157E-04  2.37928489E-02
  1.01610521E-02  7.41754761E-03  9.95158844E-03  2.57825431E-04  1.33246362E-04
 -9.22830319E-02  1.77341731E-01 -4.47315185E-02 -6.03698123E-02 -1.77142651E-03
  3.17853234E-02  3.25196515E-03 -5.69907918E-04  4.93071732E-04  9.87736689E-03
 -6.32609087E-03 -1.85201085E-02  9.79654150E-03  1.85140730E-04  2.29624529E-04
 -2.59476135E-02  5.76824673E-02 -2.90977025E-03 -3.45116731E-02  2.42284059E-04
  4.62740979E-02 -2.54499107E-03 -1.67674268E-02 -4.06849208E-05 -1.69570226E-03
  7.91553664E-03 -3.51241191E-04  1.30587949E-03 -2.62237257E-05 -5.07337774E-05
 -1.00172077E-01  2.25280901E-01 -5.10760024E-02  2.11034181E-02  5.43990710E-04
  2.03119461E-01 -3.35809239E-02  1.09718779E-02  2.35913636E-04  1.73971669E-02
  4.33963168E-03  3.33497651E-03 -6.41145347E-03 -1.72000799E-04  6.20288506E-05
  1.15605514E-01 -2.62051050E-01 -3.65865940E-02 -2.64300957E-02 -6.80360593E-04
 -2.41001594E-01 -1.20788244E-02 -1.16896618E-02 -3.92579534E-04 -6.70815932E-03
 -6.67101101E-03 -5.04082169E-03 -3.06534343E-03 -9.96954470E-05 -8.15911049E-05
 -2.31465115E-02  4.52206984E-02  1.45783268E-01 -5.88848609E-03 -3.98301183E-04
  9.69627857E-03 -8.42454398E-03 -1.35665440E-03  1.23295888E-04  2.35109299E-03
 -2.20777840E-03 -4.13404843E-03 -2.69523338E-02 -5.33722789E-04  6.94146528E-06
 -9.64112984E-03  2.11557227E-02  1.20965821E-02 -1.16549751E-02  9.79129746E-05
  1.77423472E-02  9.28516099E-03 -4.99176631E-03  3.19551001E-06 -5.00464523E-04
  2.09156326E-03 -2.60855085E-04 -4.29725119E-03  7.23238950E-05 -2.34479697E-05
 -1.95740485E-01  4.41436201E-01 -7.17763114E-02  3.85340939E-02  1.01983976E-03
  4.09963988E-01 -3.59708606E-02  1.94799087E-02  5.79228264E-04  1.85658165E-02
  9.56303879E-03  7.38781119E-03 -7.46548347E-03 -2.22776996E-04  1.23618958E-04
  4.02642820E-02 -9.19808443E-02  1.18805469E-04  2.44149400E-02 -2.03043235E-04
 -9.37759077E-02  5.13038848E-03  1.95390463E-02 -1.30370265E-04 -2.16093647E-04
  1.59183545E-03 -2.04880593E-03  4.99885414E-03 -8.75341381E-06  5.84877902E-05
 -8.92856390E-02  1.93482287E-01 -1.92020670E-03  2.35375115E-01 -2.04957072E-03
  3.01044472E-02  2.22940773E-04 -1.12787367E-02  4.74704571E-04 -2.86006926E-02
  2.26741886E-02 -1.42621172E-02 -1.08595733E-03 -6.74317378E-07 -7.60540643E-04
 -1.94667937E-01  4.28897643E-01  3.62912283E-04 -1.60799109E-01  2.08814397E-03
  3.91727221E-01 -2.27752264E-04 -5.51504335E-02  6.59165032E-04 -9.56486489E-03
  1.06721483E-02 -5.90418789E-03 -7.30899994E-05  1.29791414E-06 -3.07521789E-04
  4.37127816E-02 -9.92259430E-02 -1.30041875E-03  2.19601364E-02 -1.71250890E-04
 -1.03253484E-01 -4.73489062E-03  1.71063496E-02 -1.28969323E-04  2.30016435E-04
  8.57433723E-04 -1.91403143E-03 -4.46775838E-03  3.42233011E-06  4.86752644E-05
  7.36210414E-02 -1.52405464E-01  3.53417563E-01  1.43455763E-01  4.63299759E-03
 -2.64725472E-01  2.04513097E-01  7.77429798E-02  2.54721886E-03  2.48360618E-02
  2.45481739E-03  1.65088013E-04  1.07081797E-02  3.81657900E-04  1.34300781E-04
 -1.24158342E-01  3.01285651E-01 -3.39765757E-02 -1.99989429E-01 -7.34854740E-04
  1.59691711E-01  2.40952695E-03 -2.56316137E-02  9.15380314E-04  4.09918366E-03
 -1.34568856E-02 -1.31510072E-02  4.25742111E-03  6.75258737E-05  3.61745500E-04
  5.63592989E-02 -1.24761396E-01 -6.90872703E-03 -5.19112832E-02  8.60613252E-05
 -1.59712412E-01 -4.98700950E-03 -3.22184347E-02 -6.07227328E-05  3.42044025E-04
  1.12903643E-02  1.69788313E-03  1.18725420E-03 -2.26362304E-05 -2.13908531E-05
  5.97388647E-02 -1.23030597E-01 -2.72772263E-01  7.75888139E-02  3.15182670E-03
 -2.14287131E-01 -1.62163323E-01  4.06338876E-02  1.70512721E-03  2.30944045E-02
  9.56912140E-04  8.00310693E-04 -7.12910133E-03 -2.95319177E-04  6.42282200E-05
 -4.01692380E-02  7.72107609E-02 -2.28816843E-01 -2.79116307E-01 -5.37441621E-03
  1.60016104E-01 -1.22171725E-01 -1.65480115E-01 -3.24788449E-03 -6.04259222E-03
 -1.14912189E-02 -1.41587307E-03 -1.09704224E-02 -2.56271774E-04 -2.76183558E-04
 -1.40373671E-02  3.36819168E-02  3.56856581E-01 -1.73438118E-02 -3.98373301E-05
  2.44676870E-02  3.48946256E-02 -1.17180462E-02  6.55251077E-05 -9.39467589E-04
 -2.97545179E-04 -4.66332722E-04 -2.09266158E-02 -5.64801537E-04  2.60809196E-05
  5.51976553E-03 -1.30295478E-02  1.18519189E-01 -9.04789072E-03  5.42501937E-05
 -1.24803200E-02  7.05010184E-02 -6.05798250E-03  6.98380162E-05 -2.66647708E-04
  9.10152286E-04 -3.23210779E-05 -1.39485939E-02  2.04685984E-04 -4.51516767E-06
  5.44241140E-02 -1.05695127E-01 -3.24506309E-01  2.47278678E-01  5.52291503E-03
 -2.13102396E-01 -1.82683963E-01  1.47413302E-01  3.31435624E-03  1.49707692E-02
  1.00308206E-02  2.26440913E-03 -1.16503410E-02 -3.21388053E-04  2.37028984E-04
 -1.20622503E-04 -1.17338268E-04 -6.22537796E-03 -2.50148790E-03  4.27066467E-01
  1.28969479E-03 -3.71814734E-03 -1.09588138E-03  2.71216800E-01 -5.81000130E-04
 -1.96882948E-04  3.26473456E-04 -1.43606677E-04  2.04712215E-02  1.02826129E-02
 -1.31844441E-03  3.12585320E-03  1.21893357E-04  6.79288627E-04  3.13594024E-01
  1.36771520E-03 -3.87299967E-04 -1.33922024E-03  1.55059277E-01  1.33819342E-04
  6.41559752E-05 -7.14930937E-04  3.36746835E-05 -4.68859640E-03 -7.66010214E-03
 -1.03565929E-04 -3.88202290E-04  1.46930571E-04  2.09875486E-03  1.55723808E-01
  3.09099109E-03  2.38971252E-04 -9.57665723E-05  7.08609107E-02 -2.14026975E-04
 -4.24308135E-04  4.53015873E-05 -2.47017841E-05 -1.95044111E-04 -1.38990676E-02
 -1.10268133E-04 -2.40809835E-04  4.30462223E-03 -1.00388686E-03  3.09671321E-01
  1.59445120E-03  2.46662556E-03 -5.50711666E-05  1.94324744E-01 -5.24676707E-04
 -1.87832069E-04  1.21415540E-04  3.60056952E-05 -1.57553573E-02  6.42804399E-03
  4.07858849E-03 -2.04113373E-03  2.28731896E-01 -3.22671959E-01  2.46186580E-03
 -3.74409945E-02  1.36785813E-01 -2.08459825E-01  1.34726889E-03  1.51326369E-02
 -8.32189877E-03  1.87481495E-03 -1.02703430E-02  1.92403420E-04 -1.58520398E-04
  4.57346263E-02 -1.25047490E-01 -9.68593858E-03 -2.16605667E-01  9.99113577E-04
 -9.24349619E-02  9.06053777E-03 -1.35329309E-01  2.04061781E-04 -1.12027304E-02
  2.47608154E-02  3.12132146E-03  4.62410142E-03 -4.52273599E-05  2.72202585E-04
 -9.28298943E-02  1.89271468E-01  8.61993179E-04  2.89104598E-01 -3.62433086E-03
  4.27353425E-01 -4.30036507E-04  1.12951330E-01 -9.35344203E-04 -8.96430414E-03
 -2.75366943E-02 -3.41273780E-03  5.65629081E-04 -2.03204210E-05  3.49189274E-04
  9.64069251E-04  4.23489471E-03 -1.06959114E-01 -2.68035201E-01  2.16204909E-04
 -2.80865602E-02 -5.97480477E-02 -1.73224297E-01 -1.72722588E-04  9.65718583E-03
 -4.17216793E-03  2.23114405E-03  1.03555846E-02 -4.84983586E-05 -1.53707616E-04
 -1.33716378E-04 -1.19823763E-04 -4.72778403E-03  1.27219353E-02 -4.34084660E-01
  1.39612225E-03 -3.03146789E-03  9.01075245E-03 -3.02123013E-01 -3.31112611E-04
  3.60259895E-04 -5.66532329E-04  3.57983503E-04 -1.44859489E-02 -8.69530949E-03
  9.57632932E-05 -3.77407902E-04  5.88183169E-04 -1.66722407E-03  3.96142227E-02
 -8.56979829E-05  1.03933517E-03 -7.58399163E-04  2.49378055E-02  1.09465810E-04
 -1.03741494E-05 -4.70578817E-05 -1.42977905E-03  3.17692033E-02  1.39729388E-03
 -5.60934807E-04  1.07946534E-03 -4.43953712E-03  3.09946670E-03  3.31293447E-02
  2.90739125E-03 -3.98719105E-03  1.35495671E-03  1.76559091E-02 -6.43335528E-05
 -2.55480574E-04  1.75404862E-05  3.45537753E-04  2.61466865E-03 -2.44127167E-03
  1.97678205E-04 -5.53369876E-05 -5.30375037E-03 -1.48285783E-02  5.14980769E-01
 -1.55456250E-03 -3.37291247E-03 -1.02908588E-02  3.53958901E-01  3.26001482E-04
 -3.92294316E-04  5.85697015E-04  4.72466051E-04 -1.84411720E-02  9.25693909E-03
 -1.10800384E-03 -8.54803132E-03  3.25345055E-01 -3.24016098E-01 -1.31429004E-02
  4.93952750E-02  2.22518166E-01 -2.08117704E-01 -8.81721491E-03  7.74408702E-03
 -1.66561934E-02 -5.55376384E-03 -4.28164288E-03 -2.81118832E-04 -4.38408590E-04
 -9.31707774E-03  2.61916679E-02 -2.21813316E-02  5.99089128E-02  1.27976892E-03
  8.01821564E-03  8.42375957E-02  1.26597842E-02  9.34204761E-04 -6.85928173E-03
  2.65222759E-03 -6.90518559E-04  3.44603339E-02  9.80719720E-04  3.83721996E-05
  1.72581848E-02 -3.63030038E-02  9.47805899E-02 -9.27891979E-02  2.83858520E-03
 -7.45541638E-02  5.36925925E-02 -4.69003668E-02  1.53108026E-03  2.81113703E-04
  6.29769029E-03 -1.70250788E-04 -2.63468899E-03  5.78624836E-05 -2.14780340E-04
 -1.90092523E-03  1.16304069E-02  3.64212341E-01  3.15901607E-01  1.43318516E-02
 -3.10932149E-02  2.46652681E-01  2.04760712E-01  9.57150074E-03 -1.07235397E-02
  1.52621649E-02  4.74381609E-03 -6.00724586E-03 -3.54602427E-04  4.52157839E-04
 -2.84675494E-03  4.21431007E-03  8.98087320E-03  2.85953898E-01  2.87091273E-03
  3.70657620E-02  8.09917287E-03  1.84191513E-01  2.21902138E-03 -4.25836170E-03
  1.46171333E-04 -1.64459467E-03  3.75688541E-03  5.70329626E-05  4.47168349E-05
  4.44442526E-02 -1.19039958E-01  8.69260729E-03 -2.32171943E-01 -1.66024965E-03
 -3.77103199E-02  1.53924211E-02  9.70047870E-02 -1.16085042E-03  4.11686997E-02
 -2.14262868E-02  1.80897183E-03  6.62266302E-03  7.75430255E-05 -1.75621786E-04
 -5.70059903E-02  1.31982897E-01  2.57784192E-02  4.08050872E-01 -9.55099083E-03
  1.68183442E-01  1.58220549E-02  2.38976076E-01 -6.46021223E-03  7.76260813E-03
 -2.24187196E-02  4.95399623E-03 -1.32288163E-03  1.47453392E-05  7.62877858E-04
 -5.30724743E-04  3.40698846E-03  4.82123739E-02  3.87084974E-01  5.01307463E-03
  1.18853313E-02  3.15570430E-02  2.51228586E-01  3.60289442E-03 -4.27280134E-03
  5.08485523E-03  3.02974497E-04 -6.45730791E-03 -1.11785864E-04  1.33468867E-04
 -1.00208273E-04  9.96977520E-05  1.99506257E-03  4.13725146E-03 -2.40801341E-01
  9.37472851E-04  1.91694417E-03  2.16633157E-03 -1.75102831E-01  6.21978936E-05
 -1.13524982E-04 -1.58095263E-04 -1.83228268E-05 -4.09387131E-03  1.01942964E-03
 -6.34705816E-04  9.11409111E-04 -4.69281480E-06 -1.73468325E-03  2.56808603E-01
  6.93467129E-03 -7.41101383E-05  4.97175582E-03  9.47382430E-02  8.24595600E-05
  1.46500967E-04 -2.82064609E-04  1.67500897E-05 -9.95561273E-04  3.92412349E-02
 -1.00583918E-04  8.50095252E-04  1.05259873E-04  1.29786928E-02  5.15241818E-01
 -3.57199650E-03  9.52692733E-05  9.65384464E-03  3.49403397E-01  3.36010261E-04
 -8.32520506E-04  1.06057849E-03 -9.12678304E-06 -7.48816500E-05 -3.21510310E-02
 -9.29001756E-05  8.54750512E-05 -2.27533061E-03  4.16850758E-03 -2.60680851E-01
  8.62641855E-04 -2.06466225E-03  2.21562800E-03 -1.88805161E-01  8.44442983E-05
 -1.07808675E-04 -1.72255709E-04  1.81697556E-05  4.72891752E-03  9.22806743E-04
 -1.08361904E-02  1.98579212E-02  3.84942899E-02  1.84200752E-01  7.41905575E-04
  8.55000040E-02  3.75861411E-02  1.38044640E-01  9.15075486E-04 -3.91031826E-03
 -2.20994886E-03 -2.08325521E-03  5.07331215E-03 -2.83671805E-05  9.57052524E-05
 -6.52420203E-04  2.07057998E-03  7.69991830E-02  1.77153098E-03 -9.42352143E-05
 -5.71595768E-03  1.17470735E-01 -1.91266898E-03  4.45402989E-05 -1.55262142E-03
  9.35444439E-04 -1.07466088E-04  4.35409758E-02 -9.43432522E-05  9.17041401E-06
 -3.41789330E-04  1.08824434E-03  6.18147954E-01 -1.18999424E-03  1.22760030E-04
  2.78893892E-03  4.03052946E-01 -1.49894412E-03  9.53431580E-05 -1.94882417E-04
  2.34659313E-04  1.58649347E-04 -2.76179736E-02  4.27367761E-04 -3.17347187E-06
  1.07004658E-02 -2.00739490E-02  5.52226782E-02 -2.00741498E-01 -6.84292274E-04
 -8.27627407E-02  5.18294727E-02 -1.48037484E-01 -8.93331133E-04  2.00943001E-03
  2.63762898E-03  1.96652129E-03  5.51541560E-03  2.86188451E-06 -1.00930018E-04
  4.21098959E-03 -7.88637282E-03 -2.05243443E-02 -6.29078693E-03 -2.22344947E-01
 -3.42245193E-02 -2.35155734E-02 -9.18365805E-03 -1.86582540E-01  3.78833055E-04
  3.39930171E-04  1.98408279E-03 -6.15027854E-04  1.59191168E-02  6.87521782E-03
 -1.22839428E-02  2.14756613E-02  2.22472942E-03 -1.89328865E-02  6.27792368E-01
  1.09866922E-01  1.20502798E-04 -7.30675661E-03  4.55346786E-01 -2.65308525E-03
 -1.88398492E-03  2.77927363E-03 -8.31408229E-05  3.68836673E-04 -2.47691359E-02
  2.77399944E-03 -4.96767923E-03 -6.53416620E-04  9.35134029E-03 -4.10657131E-01
 -2.85869125E-02 -6.13986413E-04  1.62143229E-02 -3.96683932E-01  6.95222768E-04
 -6.85120586E-04  1.79218674E-03 -2.22306783E-05  1.71612261E-04 -5.96323441E-03
  4.20659415E-03 -8.05467573E-03  2.22362756E-02 -6.35336042E-03 -2.11412154E-01