 Entering Gaussian System, Link 0=g16
 Input=CF2O_1000K_step0025.gjf
 Output=CF2O_1000K_step0025.log
 Initial command:
 /apps/easybuild-2022/easybuild/software/Compiler/NVHPC/22.11-CUDA-11.7.0/Gaussian/g16c01-CUDA-11.7.0/g16/l1.exe "/tmp/Gau-264877.inp" -scrdir="/tmp/"
 Default is to use a total of   4 processors:
                                4 via shared-memory
                                1 via Linda
 Entering Link 1 = /apps/easybuild-2022/easybuild/software/Compiler/NVHPC/22.11-CUDA-11.7.0/Gaussian/g16c01-CUDA-11.7.0/g16/l1.exe PID=    264878.
  
 Copyright (c) 1988-2019, Gaussian, Inc.  All Rights Reserved.
  
 This is part of the Gaussian(R) 16 program.  It is based on
 the Gaussian(R) 09 system (copyright 2009, Gaussian, Inc.),
 the Gaussian(R) 03 system (copyright 2003, Gaussian, Inc.),
 the Gaussian(R) 98 system (copyright 1998, Gaussian, Inc.),
 the Gaussian(R) 94 system (copyright 1995, Gaussian, Inc.),
 the Gaussian 92(TM) system (copyright 1992, Gaussian, Inc.),
 the Gaussian 90(TM) system (copyright 1990, Gaussian, Inc.),
 the Gaussian 88(TM) system (copyright 1988, Gaussian, Inc.),
 the Gaussian 86(TM) system (copyright 1986, Carnegie Mellon
 University), and the Gaussian 82(TM) system (copyright 1983,
 Carnegie Mellon University). Gaussian is a federally registered
 trademark of Gaussian, Inc.
  
 This software contains proprietary and confidential information,
 including trade secrets, belonging to Gaussian, Inc.
  
 This software is provided under written license and may be
 used, copied, transmitted, or stored only in accord with that
 written license.
  
 The following legend is applicable only to US Government
 contracts under FAR:
  
                    RESTRICTED RIGHTS LEGEND
  
 Use, reproduction and disclosure by the US Government is
 subject to restrictions as set forth in subparagraphs (a)
 and (c) of the Commercial Computer Software - Restricted
 Rights clause in FAR 52.227-19.
  
 Gaussian, Inc.
 340 Quinnipiac St., Bldg. 40, Wallingford CT 06492
  
  
 ---------------------------------------------------------------
 Warning -- This program may not be used in any manner that
 competes with the business of Gaussian, Inc. or will provide
 assistance to any competitor of Gaussian, Inc.  The licensee
 of this program is prohibited from giving any competitor of
 Gaussian, Inc. access to this program.  By using this program,
 the user acknowledges that Gaussian, Inc. is engaged in the
 business of creating and licensing software in the field of
 computational chemistry and represents and warrants to the
 licensee that it is not a competitor of Gaussian, Inc. and that
 it will not use this program in any manner prohibited above.
 ---------------------------------------------------------------
  

 Cite this work as:
 Gaussian 16, Revision C.01,
 M. J. Frisch, G. W. Trucks, H. B. Schlegel, G. E. Scuseria, 
 M. A. Robb, J. R. Cheeseman, G. Scalmani, V. Barone, 
 G. A. Petersson, H. Nakatsuji, X. Li, M. Caricato, A. V. Marenich, 
 J. Bloino, B. G. Janesko, R. Gomperts, B. Mennucci, H. P. Hratchian, 
 J. V. Ortiz, A. F. Izmaylov, J. L. Sonnenberg, D. Williams-Young, 
 F. Ding, F. Lipparini, F. Egidi, J. Goings, B. Peng, A. Petrone, 
 T. Henderson, D. Ranasinghe, V. G. Zakrzewski, J. Gao, N. Rega, 
 G. Zheng, W. Liang, M. Hada, M. Ehara, K. Toyota, R. Fukuda, 
 J. Hasegawa, M. Ishida, T. Nakajima, Y. Honda, O. Kitao, H. Nakai, 
 T. Vreven, K. Throssell, J. A. Montgomery, Jr., J. E. Peralta, 
 F. Ogliaro, M. J. Bearpark, J. J. Heyd, E. N. Brothers, K. N. Kudin, 
 V. N. Staroverov, T. A. Keith, R. Kobayashi, J. Normand, 
 K. Raghavachari, A. P. Rendell, J. C. Burant, S. S. Iyengar, 
 J. Tomasi, M. Cossi, J. M. Millam, M. Klene, C. Adamo, R. Cammi, 
 J. W. Ochterski, R. L. Martin, K. Morokuma, O. Farkas, 
 J. B. Foresman, and D. J. Fox, Gaussian, Inc., Wallingford CT, 2019.
 
 ******************************************
 Gaussian 16:  ES64L-G16RevC.01  3-Jul-2019
                20-Mar-2025 
 ******************************************
 %chk=CF2O_1000K_step0025.chk
 %mem=8GB
 %nprocshared=4
 Will use up to    4 processors via shared memory.
 -----------------------------------------
 # B3LYP/6-31G(d) pop=full density=current
 -----------------------------------------
 1/30=1,38=1,172=1/1;
 2/12=2,17=6,18=5,40=1/2;
 3/5=1,6=6,7=1,11=2,25=1,30=1,74=-5/1,2,3;
 4//1;
 5/5=2,38=5/2;
 6/7=3,22=-1,28=1/1;
 99/5=1,9=1/99;
 -----------------
 CF2O Time step 25
 -----------------
 Symbolic Z-matrix:
 Charge =  0 Multiplicity = 1
 F                     1.19835  -0.58103   0.04769 
 C                     0.06887   0.07091  -0.05767 
 O                     0.00121   1.33814  -0.08023 
 F                    -1.24287  -0.59035   0.05628 
 
                          Input orientation:                          
 ---------------------------------------------------------------------
 Center     Atomic      Atomic             Coordinates (Angstroms)
 Number     Number       Type             X           Y           Z
 ---------------------------------------------------------------------
      1          9           0        1.198349   -0.581029    0.047693
      2          6           0        0.068869    0.070908   -0.057668
      3          8           0        0.001208    1.338135   -0.080229
      4          9           0       -1.242867   -0.590346    0.056277
 ---------------------------------------------------------------------
                    Distance matrix (angstroms):
                    1          2          3          4
     1  F    0.000000
     2  C    1.308376   0.000000
     3  O    2.265547   1.269233   0.000000
     4  F    2.441249   1.473395   2.298999   0.000000
 Stoichiometry    CF2O
 Framework group  C1[X(CF2O)]
 Deg. of freedom     6
 Full point group                 C1      NOp   1
 Largest Abelian subgroup         C1      NOp   1
 Largest concise Abelian subgroup C1      NOp   1
                         Standard orientation:                         
 ---------------------------------------------------------------------
 Center     Atomic      Atomic             Coordinates (Angstroms)
 Number     Number       Type             X           Y           Z
 ---------------------------------------------------------------------
      1          9           0       -1.158159   -0.674248   -0.012555
      2          6           0       -0.071743    0.051965    0.051963
      3          8           0       -0.082154    1.319471   -0.013385
      4          9           0        1.279014   -0.533258   -0.010189
 ---------------------------------------------------------------------
 Rotational constants (GHZ):          12.0511380           8.9018067           5.1240721
 Standard basis: 6-31G(d) (6D, 7F)
 There are    60 symmetry adapted cartesian basis functions of A   symmetry.
 There are    60 symmetry adapted basis functions of A   symmetry.
    60 basis functions,   112 primitive gaussians,    60 cartesian basis functions
    16 alpha electrons       16 beta electrons
       nuclear repulsion energy       112.1955474370 Hartrees.
 NAtoms=    4 NActive=    4 NUniq=    4 SFac= 1.00D+00 NAtFMM=   60 NAOKFM=F Big=F
 Integral buffers will be    131072 words long.
 Raffenetti 2 integral format.
 Two-electron integral symmetry is turned on.
 One-electron integrals computed using PRISM.
 NBasis=    60 RedAO= T EigKep=  4.40D-03  NBF=    60
 NBsUse=    60 1.00D-06 EigRej= -1.00D+00 NBFU=    60
 ExpMin= 1.69D-01 ExpMax= 7.00D+03 ExpMxC= 1.05D+03 IAcc=3 IRadAn=         5 AccDes= 0.00D+00
 Harris functional with IExCor=  402 and IRadAn=       5 diagonalized for initial guess.
 HarFok:  IExCor=  402 AccDes= 0.00D+00 IRadAn=         5 IDoV= 1 UseB2=F ITyADJ=14
 ICtDFT=  3500011 ScaDFX=  1.000000  1.000000  1.000000  1.000000
 FoFCou: FMM=F IPFlag=           0 FMFlag=      100000 FMFlg1=           0
         NFxFlg=           0 DoJE=T BraDBF=F KetDBF=T FulRan=T
         wScrn=  0.000000 ICntrl=       500 IOpCl=  0 I1Cent=   200000004 NGrid=           0
         NMat0=    1 NMatS0=      1 NMatT0=    0 NMatD0=    1 NMtDS0=    0 NMtDT0=    0
 Petite list used in FoFCou.
 Keep R1 ints in memory in canonical form, NReq=5215649.
 Requested convergence on RMS density matrix=1.00D-08 within 128 cycles.
 Requested convergence on MAX density matrix=1.00D-06.
 Requested convergence on             energy=1.00D-06.
 No special actions if energy rises.
 Integral accuracy reduced to 1.0D-05 until final iterations.
 Initial convergence to 1.0D-05 achieved.  Increase integral accuracy.
 SCF Done:  E(RB3LYP) =  -312.968193449     A.U. after   14 cycles
            NFock= 14  Conv=0.91D-08     -V/T= 2.0092

 **********************************************************************

            Population analysis using the SCF Density.

 **********************************************************************

 Orbital symmetries:
       Occupied  (A) (A) (A) (A) (A) (A) (A) (A) (A) (A) (A) (A)
                 (A) (A) (A) (A)
       Virtual   (A) (A) (A) (A) (A) (A) (A) (A) (A) (A) (A) (A)
                 (A) (A) (A) (A) (A) (A) (A) (A) (A) (A) (A) (A)
                 (A) (A) (A) (A) (A) (A) (A) (A) (A) (A) (A) (A)
                 (A) (A) (A) (A) (A) (A) (A) (A)
 The electronic state is 1-A.
 Alpha  occ. eigenvalues --  -24.81715 -24.75453 -19.20403 -10.47117  -1.33641
 Alpha  occ. eigenvalues --   -1.22436  -1.05973  -0.69876  -0.60389  -0.56554
 Alpha  occ. eigenvalues --   -0.54209  -0.46714  -0.46309  -0.44404  -0.37791
 Alpha  occ. eigenvalues --   -0.33517
 Alpha virt. eigenvalues --   -0.06884  -0.00159   0.20632   0.28831   0.46891
 Alpha virt. eigenvalues --    0.47604   0.48628   0.54830   0.84027   0.93650
 Alpha virt. eigenvalues --    0.94178   1.04062   1.08127   1.11799   1.22134
 Alpha virt. eigenvalues --    1.25960   1.26417   1.33370   1.35611   1.37630
 Alpha virt. eigenvalues --    1.54549   1.61279   1.73678   1.75216   1.77324
 Alpha virt. eigenvalues --    1.79176   1.81307   1.82183   1.85145   1.91007
 Alpha virt. eigenvalues --    1.93186   1.99842   2.10020   2.41891   2.55732
 Alpha virt. eigenvalues --    2.58642   2.67924   2.85778   2.97690   3.02574
 Alpha virt. eigenvalues --    3.69550   4.07407   4.25197   4.59964
     Molecular Orbital Coefficients:
                           1         2         3         4         5
                           O         O         O         O         O
     Eigenvalues --   -24.81715 -24.75453 -19.20403 -10.47117  -1.33641
   1 1   F  1S          0.99297   0.00006   0.00001   0.00005  -0.21404
   2        2S          0.01949   0.00031   0.00008   0.00081   0.48652
   3        2PX         0.00073   0.00003   0.00003   0.00010   0.09437
   4        2PY         0.00041   0.00003  -0.00004   0.00007   0.05980
   5        2PZ         0.00005   0.00000   0.00001   0.00001   0.00580
   6        3S          0.01571  -0.00099  -0.00020  -0.00285   0.42795
   7        3PX        -0.00034  -0.00017  -0.00008  -0.00193   0.04540
   8        3PY        -0.00020  -0.00029   0.00019  -0.00126   0.02722
   9        3PZ        -0.00002  -0.00002  -0.00002  -0.00013   0.00270
  10        4XX        -0.00842   0.00015   0.00011  -0.00034   0.02386
  11        4YY        -0.00822   0.00013  -0.00005   0.00031   0.01336
  12        4ZZ        -0.00807   0.00028   0.00007   0.00073   0.00933
  13        4XY        -0.00027  -0.00010  -0.00002  -0.00072   0.01076
  14        4XZ        -0.00002  -0.00001   0.00000  -0.00008   0.00111
  15        4YZ        -0.00002  -0.00002   0.00001  -0.00005   0.00070
  16 2   C  1S          0.00002   0.00002   0.00003   0.99306  -0.07812
  17        2S          0.00045  -0.00011   0.00064   0.04562   0.15139
  18        2PX        -0.00059   0.00032   0.00003  -0.00083  -0.09273
  19        2PY        -0.00035  -0.00016   0.00014  -0.00152  -0.06484
  20        2PZ        -0.00004  -0.00003  -0.00001  -0.00009  -0.00656
  21        3S         -0.00054  -0.00026  -0.00275  -0.00407   0.02730
  22        3PX         0.00082  -0.00074  -0.00001  -0.00076   0.00753
  23        3PY         0.00056   0.00036  -0.00203  -0.00016   0.00000
  24        3PZ         0.00002   0.00000   0.00011  -0.00003   0.00164
  25        4XX         0.00030   0.00075   0.00002  -0.00778   0.00860
  26        4YY         0.00017   0.00027  -0.00054  -0.00815  -0.00381
  27        4ZZ        -0.00004   0.00008   0.00004  -0.00931  -0.01610
  28        4XY         0.00017  -0.00024  -0.00002   0.00053   0.02072
  29        4XZ         0.00001  -0.00002  -0.00000   0.00004   0.00161
  30        4YZ         0.00001   0.00001   0.00003   0.00003   0.00114
  31 3   O  1S          0.00002   0.00003   0.99285  -0.00017  -0.01776
  32        2S          0.00015   0.00019   0.02580  -0.00011   0.03935
  33        2PX         0.00002  -0.00000  -0.00002  -0.00004  -0.00531
  34        2PY         0.00000  -0.00002  -0.00109  -0.00003  -0.02414
  35        2PZ         0.00000   0.00000   0.00007  -0.00000   0.00062
  36        3S         -0.00056  -0.00067   0.01196   0.00037   0.03275
  37        3PX        -0.00013   0.00011   0.00003   0.00018  -0.00539
  38        3PY         0.00023   0.00031  -0.00107   0.00059  -0.01356
  39        3PZ        -0.00002  -0.00002   0.00005  -0.00003  -0.00017
  40        4XX         0.00005   0.00005  -0.00785  -0.00012  -0.00133
  41        4YY        -0.00006  -0.00004  -0.00754  -0.00012   0.00649
  42        4ZZ         0.00011   0.00016  -0.00787  -0.00005  -0.00038
  43        4XY        -0.00004  -0.00000  -0.00001   0.00002   0.00268
  44        4XZ        -0.00001   0.00001   0.00000  -0.00000  -0.00020
  45        4YZ         0.00001   0.00001  -0.00002   0.00002  -0.00012
  46 4   F  1S          0.00003   0.99303   0.00001  -0.00005  -0.03072
  47        2S          0.00023   0.01958   0.00007   0.00001   0.06801
  48        2PX        -0.00004  -0.00062  -0.00002  -0.00011  -0.01832
  49        2PY         0.00003   0.00018  -0.00002   0.00002   0.00443
  50        2PZ         0.00000   0.00003   0.00000   0.00000   0.00056
  51        3S         -0.00072   0.01515  -0.00011   0.00054   0.06107
  52        3PX         0.00012   0.00022   0.00009   0.00088  -0.01674
  53        3PY        -0.00015  -0.00006   0.00014  -0.00024   0.00203
  54        3PZ        -0.00001  -0.00001  -0.00002  -0.00003   0.00006
  55        4XX         0.00010  -0.00828   0.00002  -0.00076   0.00939
  56        4YY         0.00016  -0.00800  -0.00003  -0.00004   0.00033
  57        4ZZ         0.00019  -0.00795   0.00008   0.00011   0.00025
  58        4XY         0.00002   0.00016   0.00003   0.00037  -0.00258
  59        4XZ         0.00000   0.00002   0.00000   0.00005  -0.00030
  60        4YZ        -0.00001  -0.00001   0.00000  -0.00002   0.00005
                           6         7         8         9        10
                           O         O         O         O         O
     Eigenvalues --    -1.22436  -1.05973  -0.69876  -0.60389  -0.56554
   1 1   F  1S          0.04609   0.03579   0.08260   0.02006  -0.00035
   2        2S         -0.10521  -0.08183  -0.17219  -0.03551  -0.00008
   3        2PX        -0.00577   0.00192   0.40375   0.07091  -0.02907
   4        2PY        -0.00941   0.02666   0.21744   0.32928  -0.02245
   5        2PZ        -0.00116  -0.00077   0.02496   0.02172   0.53832
   6        3S         -0.09958  -0.08466  -0.29698  -0.08466   0.00234
   7        3PX         0.00326   0.00559   0.22821   0.02813  -0.01782
   8        3PY        -0.00303   0.02146   0.11892   0.19795  -0.01298
   9        3PZ        -0.00082  -0.00053   0.01388   0.01350   0.34501
  10        4XX         0.00067  -0.00048   0.02382  -0.00459  -0.00213
  11        4YY        -0.00288   0.00267   0.00463   0.01447  -0.00103
  12        4ZZ        -0.00249  -0.00174  -0.00057   0.00147   0.00226
  13        4XY         0.00028   0.00513   0.01390   0.00961  -0.00122
  14        4XZ        -0.00008  -0.00007   0.00181   0.00068   0.02363
  15        4YZ        -0.00012   0.00025   0.00090   0.00134   0.01408
  16 2   C  1S         -0.04298  -0.08756  -0.12119   0.04318  -0.00452
  17        2S          0.08707   0.19116   0.29504  -0.10379   0.01101
  18        2PX         0.10329  -0.00303  -0.10093  -0.33667   0.00196
  19        2PY        -0.00273   0.21914  -0.18700   0.05318  -0.00047
  20        2PZ        -0.00290  -0.00807  -0.00334   0.00072   0.28426
  21        3S          0.02356   0.03375   0.16338  -0.08528   0.00491
  22        3PX        -0.00364   0.00021   0.00769  -0.05369  -0.00469
  23        3PY        -0.00554  -0.01104  -0.02041   0.04565  -0.00719
  24        3PZ         0.00083   0.00184   0.00318  -0.00031   0.14067
  25        4XX         0.00313  -0.02560   0.00407   0.00632   0.00047
  26        4YY        -0.00340   0.02260  -0.01247  -0.00151   0.00056
  27        4ZZ        -0.00699  -0.01346  -0.01347   0.00095  -0.00263
  28        4XY        -0.01621  -0.00319   0.01284   0.01494   0.00054
  29        4XZ        -0.00135  -0.00007   0.00084   0.00199  -0.01501
  30        4YZ        -0.00011  -0.00290   0.00147  -0.00037  -0.00910
  31 3   O  1S         -0.02252  -0.19560   0.05628  -0.01563  -0.00142
  32        2S          0.04891   0.43454  -0.12517   0.03816   0.00070
  33        2PX         0.00928  -0.00080  -0.01798  -0.11906   0.00211
  34        2PY        -0.02496  -0.15288  -0.05197   0.03289   0.00988
  35        2PZ         0.00090   0.00798   0.00065  -0.00088   0.12977
  36        3S          0.04436   0.40330  -0.16410   0.03157   0.01590
  37        3PX         0.00711  -0.00154  -0.01376  -0.06968   0.00311
  38        3PY        -0.01117  -0.05736  -0.02937   0.02237   0.00035
  39        3PZ         0.00017   0.00276  -0.00020  -0.00129   0.05926
  40        4XX        -0.00117  -0.00944   0.00081   0.00150  -0.00090
  41        4YY         0.00392   0.01081   0.01112  -0.00271  -0.00177
  42        4ZZ        -0.00094  -0.00546   0.00155   0.00046   0.00001
  43        4XY        -0.00296   0.00008   0.00341   0.01297  -0.00035
  44        4XZ         0.00015   0.00000  -0.00025  -0.00069  -0.00077
  45        4YZ        -0.00022  -0.00121  -0.00011   0.00009  -0.01154
  46 4   F  1S         -0.22112   0.04727   0.03945  -0.05912  -0.00015
  47        2S          0.49509  -0.10597  -0.08039   0.11328  -0.00181
  48        2PX        -0.06883  -0.00481  -0.15482   0.36497   0.00568
  49        2PY         0.02751   0.01726   0.02359  -0.17745  -0.00064
  50        2PZ         0.00337  -0.00036   0.00628  -0.01941   0.15539
  51        3S          0.47674  -0.11469  -0.14280   0.23463   0.00598
  52        3PX        -0.04383  -0.00394  -0.09578   0.21602   0.00240
  53        3PY         0.01674   0.01301   0.00933  -0.10856   0.00203
  54        3PZ         0.00218  -0.00045   0.00320  -0.01172   0.09449
  55        4XX         0.02355   0.00063   0.01798  -0.02345  -0.00146
  56        4YY         0.00777   0.00033   0.00039  -0.00875  -0.00075
  57        4ZZ         0.00648  -0.00130   0.00132  -0.00424  -0.00041
  58        4XY        -0.00793  -0.00322  -0.00315   0.00992  -0.00022
  59        4XZ        -0.00108   0.00001  -0.00070   0.00131  -0.00828
  60        4YZ         0.00043   0.00012   0.00005  -0.00065   0.00221
                          11        12        13        14        15
                           O         O         O         O         O
     Eigenvalues --    -0.54209  -0.46714  -0.46309  -0.44404  -0.37791
   1 1   F  1S          0.00551  -0.00125  -0.00066  -0.00690  -0.00035
   2        2S         -0.00559  -0.00793  -0.00267   0.00245   0.00054
   3        2PX         0.33669   0.22621   0.02877   0.08418   0.00669
   4        2PY        -0.32528  -0.33625  -0.01869   0.13329   0.01527
   5        2PZ         0.00982   0.01471  -0.30547   0.00047  -0.21194
   6        3S         -0.03571   0.03816   0.01405   0.08686   0.00290
   7        3PX         0.20545   0.15850   0.02113   0.06611   0.00669
   8        3PY        -0.21073  -0.21555  -0.00807   0.08749   0.00780
   9        3PZ         0.00570   0.01192  -0.22041   0.00199  -0.15381
  10        4XX         0.01828   0.00446  -0.00061  -0.00555   0.00025
  11        4YY        -0.01170  -0.01278  -0.00166  -0.00853  -0.00036
  12        4ZZ         0.00112  -0.00435  -0.00289  -0.00594  -0.00038
  13        4XY        -0.00803  -0.00248   0.00046   0.00186  -0.00009
  14        4XZ         0.00092   0.00093  -0.00812   0.00011  -0.00271
  15        4YZ        -0.00080  -0.00016  -0.00578  -0.00021   0.00132
  16 2   C  1S          0.05115  -0.03098  -0.00466   0.02776  -0.00289
  17        2S         -0.13630   0.08744   0.01180  -0.07316   0.00433
  18        2PX        -0.04841  -0.04988  -0.00471   0.02090  -0.00020
  19        2PY        -0.21040   0.21366   0.01617  -0.13380  -0.00655
  20        2PZ        -0.00178  -0.00639   0.13114  -0.00180   0.25480
  21        3S         -0.11392   0.02344   0.00470  -0.02806   0.02750
  22        3PX         0.01925   0.04368   0.01438   0.05968  -0.00094
  23        3PY        -0.11341   0.01753  -0.00337   0.11549   0.01771
  24        3PZ        -0.00178  -0.00285   0.08619  -0.00042   0.09568
  25        4XX        -0.01004  -0.02712  -0.00301   0.02800   0.00005
  26        4YY         0.02166   0.01372   0.00159  -0.01630   0.00059
  27        4ZZ         0.00282  -0.00211  -0.00097   0.00076  -0.00115
  28        4XY         0.01418   0.01960  -0.00066   0.02186   0.00021
  29        4XZ        -0.00004  -0.00180   0.02584   0.00097  -0.00316
  30        4YZ         0.00124  -0.00042   0.00526  -0.00047   0.03636
  31 3   O  1S         -0.08955   0.05424   0.00330  -0.02747  -0.00037
  32        2S          0.18487  -0.11539  -0.00826   0.06878   0.00293
  33        2PX        -0.00474   0.03975  -0.00689   0.10419   0.00227
  34        2PY         0.28080  -0.33190  -0.01692   0.24789   0.05097
  35        2PZ        -0.01725   0.01952   0.12203  -0.02160   0.50694
  36        3S          0.39790  -0.21949  -0.00724   0.04146  -0.01260
  37        3PX        -0.00559   0.02360  -0.00959   0.06561   0.00199
  38        3PY         0.11222  -0.17659  -0.01147   0.15960   0.03796
  39        3PZ        -0.00567   0.01170   0.06833  -0.01700   0.34462
  40        4XX        -0.00810  -0.00075  -0.00073   0.00790   0.00121
  41        4YY        -0.02537   0.02027   0.00050  -0.01159  -0.00327
  42        4ZZ        -0.00341  -0.00087   0.00019   0.00405   0.00399
  43        4XY         0.00207   0.00002   0.00125  -0.00549  -0.00022
  44        4XZ        -0.00023  -0.00031   0.00225   0.00027  -0.00074
  45        4YZ         0.00152  -0.00148  -0.00852   0.00180  -0.03061
  46 4   F  1S         -0.00810  -0.00812  -0.00032   0.00033  -0.00027
  47        2S          0.02034   0.01909   0.00219   0.00544   0.00031
  48        2PX         0.05070   0.33966   0.04506   0.17070  -0.01042
  49        2PY        -0.17837   0.13215  -0.02629   0.55290   0.01637
  50        2PZ        -0.00954  -0.05184   0.56123   0.03234  -0.29609
  51        3S          0.01251   0.00836  -0.00536  -0.01130   0.00216
  52        3PX         0.03888   0.23201   0.03147   0.11607  -0.00864
  53        3PY        -0.11513   0.08658  -0.01933   0.36492   0.00908
  54        3PZ        -0.00734  -0.03656   0.38491   0.02226  -0.21207
  55        4XX        -0.00009  -0.01208  -0.00120  -0.00553   0.00050
  56        4YY        -0.00107   0.00734   0.00034   0.01006  -0.00031
  57        4ZZ         0.00129   0.00247   0.00247   0.00287  -0.00063
  58        4XY         0.00879  -0.00279   0.00120  -0.01102   0.00009
  59        4XZ         0.00058   0.00230  -0.01911  -0.00069   0.00506
  60        4YZ        -0.00053  -0.00019   0.00723   0.00094   0.00083
                          16        17        18        19        20
                           O         V         V         V         V
     Eigenvalues --    -0.33517  -0.06884  -0.00159   0.20632   0.28831
   1 1   F  1S         -0.01028   0.01693   0.04952   0.07178   0.03586
   2        2S          0.01829  -0.03411  -0.10577  -0.15148  -0.08329
   3        2PX         0.02659  -0.08870  -0.27953  -0.13901  -0.18983
   4        2PY         0.15543  -0.02406  -0.05597  -0.26187   0.08881
   5        2PZ         0.00352  -0.22012   0.06729  -0.01373  -0.02854
   6        3S          0.08314  -0.13205  -0.39114  -0.70473  -0.41166
   7        3PX         0.02739  -0.09289  -0.29554  -0.27438  -0.25721
   8        3PY         0.11901  -0.03449  -0.09789  -0.36384   0.09345
   9        3PZ         0.00398  -0.18363   0.05385  -0.01702  -0.02972
  10        4XX        -0.00471   0.00251   0.01308  -0.01105   0.01758
  11        4YY        -0.00198   0.00012  -0.00445   0.02140   0.00058
  12        4ZZ        -0.00209   0.00677   0.01156   0.01455  -0.01287
  13        4XY         0.00432  -0.00210  -0.00459   0.00783  -0.00029
  14        4XZ        -0.00018   0.01406  -0.00663  -0.00161   0.00472
  15        4YZ         0.00033   0.00668  -0.00445   0.00221  -0.00037
  16 2   C  1S         -0.00239  -0.05460  -0.14305  -0.04344   0.04204
  17        2S          0.00836   0.10433   0.28593  -0.03806   0.03018
  18        2PX         0.07623   0.04005   0.18552  -0.72579  -0.22025
  19        2PY         0.00596  -0.08930  -0.30464   0.08655  -0.40582
  20        2PZ        -0.00142   0.58125  -0.23182  -0.03079   0.01327
  21        3S         -0.02261   0.41536   1.13585   1.00051  -1.40371
  22        3PX         0.11208   0.00382   0.05512  -0.87867  -0.30834
  23        3PY        -0.00698  -0.03657  -0.14789   0.25130  -1.83631
  24        3PZ         0.00071   0.40096  -0.18991  -0.05689   0.07143
  25        4XX        -0.00477  -0.01353  -0.03932   0.00747  -0.02166
  26        4YY         0.00209  -0.00908  -0.01366  -0.02029   0.03135
  27        4ZZ        -0.00030   0.01044   0.02383   0.01243  -0.01746
  28        4XY         0.04048  -0.00187  -0.00487  -0.01982  -0.01498
  29        4XZ        -0.00044   0.00078   0.00021  -0.00698  -0.00203
  30        4YZ         0.00013  -0.02295   0.00665   0.00203  -0.00578
  31 3   O  1S         -0.00119   0.01032   0.02880   0.03973  -0.10748
  32        2S          0.00428  -0.02056  -0.05606  -0.07579   0.16263
  33        2PX         0.61594  -0.01307  -0.06195   0.26680   0.08126
  34        2PY        -0.01312   0.04583   0.15767   0.12663  -0.23888
  35        2PZ         0.00203  -0.39245   0.12693   0.00490   0.02299
  36        3S          0.00872  -0.09515  -0.28133  -0.54422   1.83901
  37        3PX         0.40261  -0.01119  -0.05886   0.33913   0.12146
  38        3PY        -0.01119   0.06412   0.22453   0.32807  -0.91689
  39        3PZ         0.00153  -0.36465   0.12267  -0.00151   0.05412
  40        4XX        -0.00132   0.00192   0.00457   0.00926  -0.04001
  41        4YY         0.00179  -0.00233  -0.00394  -0.00591   0.00237
  42        4ZZ         0.00075   0.00581   0.01499   0.01555  -0.04626
  43        4XY        -0.02639  -0.00053  -0.00353   0.02590   0.00995
  44        4XZ         0.00165   0.00058   0.00011  -0.00341  -0.00135
  45        4YZ        -0.00009  -0.00393   0.00532   0.00221  -0.00192
  46 4   F  1S          0.00952   0.01693   0.05612  -0.03818  -0.00886
  47        2S         -0.01901  -0.03657  -0.12815   0.08816   0.00599
  48        2PX         0.08961   0.11738   0.37139  -0.16779   0.05107
  49        2PY        -0.22074  -0.02705  -0.08411   0.11175   0.20613
  50        2PZ        -0.00279  -0.18116   0.04517   0.03119  -0.00739
  51        3S         -0.06908  -0.11152  -0.37001   0.30712   0.08110
  52        3PX         0.07958   0.11676   0.37490  -0.17746   0.02185
  53        3PY        -0.15868  -0.03227  -0.10814   0.10846   0.24733
  54        3PZ        -0.00369  -0.14499   0.03413   0.02431  -0.00728
  55        4XX        -0.00245  -0.00011   0.00583  -0.01398   0.00599
  56        4YY         0.00307   0.00009  -0.00358  -0.00598  -0.00893
  57        4ZZ         0.00142   0.00438   0.00567   0.00815  -0.01548
  58        4XY         0.00547   0.00151   0.00229   0.01714   0.01355
  59        4XZ         0.00027  -0.01231   0.00542   0.00417  -0.00197
  60        4YZ        -0.00038   0.00330  -0.00197  -0.00247  -0.00260
                          21        22        23        24        25
                           V         V         V         V         V
     Eigenvalues --     0.46891   0.47604   0.48628   0.54830   0.84027
   1 1   F  1S          0.02152  -0.00915  -0.01784  -0.00089   0.00267
   2        2S         -0.00162   0.00193   0.01040  -0.01765   0.06523
   3        2PX         0.24364  -0.07160  -0.11572   0.01882  -0.07248
   4        2PY         0.19765  -0.04995   0.06698   0.00282   0.10329
   5        2PZ        -0.01423  -0.10984   0.02516   0.01037  -0.01129
   6        3S         -0.79087   0.28498   0.42385   0.06769  -0.12773
   7        3PX        -0.22229   0.07684   0.00511  -0.02996   0.01228
   8        3PY        -0.11481   0.06133   0.20644  -0.10422  -0.06748
   9        3PZ        -0.04609  -0.11905   0.02273   0.00313   0.00427
  10        4XX        -0.09674   0.02839  -0.01250   0.01716   0.04754
  11        4YY        -0.00322   0.00492   0.02667  -0.04738   0.00409
  12        4ZZ         0.06241  -0.02426  -0.01394   0.00413   0.01344
  13        4XY        -0.10632   0.03771   0.03995  -0.03209  -0.01755
  14        4XZ        -0.02049  -0.03043   0.00363   0.00179   0.00391
  15        4YZ        -0.01387  -0.02371   0.00239  -0.00103  -0.00062
  16 2   C  1S          0.02984  -0.00581  -0.01567   0.05032   0.03548
  17        2S         -0.90905   0.15756  -0.37146  -1.03802   0.41673
  18        2PX         0.38501  -0.15255  -0.60315  -0.11083  -0.01833
  19        2PY         0.51078  -0.10114   0.41342  -0.67574   0.26401
  20        2PZ        -0.23325  -0.90452   0.07865   0.02093  -0.01724
  21        3S          1.39461  -0.31877   0.65258   1.65147  -0.01461
  22        3PX        -0.85553   0.38563   1.80662   0.29583   0.00135
  23        3PY        -0.93965   0.19686  -0.62692   1.13425  -0.07922
  24        3PZ         0.29535   1.29848  -0.13562  -0.05883   0.00144
  25        4XX         0.05251  -0.02183   0.00961  -0.07648  -0.02505
  26        4YY        -0.03685  -0.00856  -0.07406   0.12749   0.25783
  27        4ZZ        -0.04597   0.01410  -0.00015  -0.07952  -0.05460
  28        4XY         0.08107  -0.02778  -0.05131  -0.00418  -0.00611
  29        4XZ         0.00653   0.00327   0.00057   0.00040   0.00135
  30        4YZ         0.00446  -0.00624   0.00237  -0.00974  -0.01761
  31 3   O  1S          0.00476  -0.00171   0.00821  -0.00711   0.00798
  32        2S         -0.07288   0.00586  -0.06583   0.07132  -0.53180
  33        2PX         0.03892  -0.02520  -0.16478  -0.02172   0.04307
  34        2PY         0.01673   0.00415   0.08515  -0.45306  -0.66446
  35        2PZ        -0.01674  -0.11130   0.01518   0.02137   0.02535
  36        3S          0.20101   0.01734   0.17961  -0.90061   0.71973
  37        3PX         0.12978  -0.05984  -0.29811  -0.05235  -0.04697
  38        3PY         0.09897  -0.04847   0.05061   0.25000   1.17583
  39        3PZ        -0.03702  -0.16281   0.01855  -0.01034  -0.05033
  40        4XX        -0.01895  -0.00081  -0.02710   0.05252  -0.20196
  41        4YY        -0.01756   0.01311   0.02514  -0.17729  -0.21382
  42        4ZZ        -0.01399  -0.00654  -0.01384   0.07186  -0.19486
  43        4XY        -0.02795   0.01057   0.03765   0.00944   0.00264
  44        4XZ         0.00035  -0.00013   0.00126   0.00006  -0.00013
  45        4YZ         0.01161   0.04815  -0.00731   0.01513   0.00035
  46 4   F  1S          0.00241   0.00140   0.04376   0.00664   0.00239
  47        2S         -0.07317   0.01014  -0.09185  -0.07033   0.11256
  48        2PX        -0.00235  -0.01743  -0.15876  -0.08286   0.05275
  49        2PY         0.08107  -0.01885   0.06282  -0.01711   0.11113
  50        2PZ        -0.02102  -0.12045   0.00734   0.00657  -0.00904
  51        3S          0.05066  -0.05385  -0.83772  -0.09215  -0.18967
  52        3PX         0.12069  -0.01741   0.35999   0.09158  -0.04003
  53        3PY         0.08301  -0.02951  -0.18046  -0.15655  -0.05500
  54        3PZ        -0.02906  -0.11666  -0.01024  -0.00071   0.00552
  55        4XX        -0.07858   0.01189  -0.10975  -0.04873   0.07851
  56        4YY        -0.00553   0.00076   0.00731  -0.04737   0.02310
  57        4ZZ        -0.01464   0.00294   0.04234  -0.00284   0.03538
  58        4XY         0.00348   0.00192   0.06564   0.05944   0.02585
  59        4XZ         0.00794   0.01862   0.00619   0.00165  -0.00452
  60        4YZ        -0.00352  -0.01058  -0.00140  -0.00166  -0.00081
                          26        27        28        29        30
                           V         V         V         V         V
     Eigenvalues --     0.93650   0.94178   1.04062   1.08127   1.11799
   1 1   F  1S         -0.00002  -0.01385  -0.03745   0.00813   0.01624
   2        2S          0.02272  -0.55483  -0.78797   0.15320   0.31032
   3        2PX        -0.03079   0.17146   0.46627  -0.00918  -0.06185
   4        2PY         0.00963   0.23535   0.10981  -0.10799  -0.40324
   5        2PZ         0.17646  -0.02755   0.05979  -0.58262   0.21736
   6        3S         -0.02702   0.78954   1.62096  -0.35167  -0.77615
   7        3PX         0.03703  -0.28475  -0.66821   0.05867   0.21079
   8        3PY        -0.00242  -0.34996  -0.22329   0.12428   0.48662
   9        3PZ        -0.11356   0.01844  -0.07160   0.62136  -0.23727
  10        4XX         0.01545  -0.24455  -0.35882   0.06974   0.13276
  11        4YY         0.00979  -0.29260  -0.34295   0.06679   0.13726
  12        4ZZ         0.00352  -0.20976  -0.41509   0.07899   0.17498
  13        4XY        -0.00503  -0.00688   0.02111  -0.01516  -0.04956
  14        4XZ        -0.02630   0.00190   0.00247   0.03306  -0.01421
  15        4YZ         0.02952   0.01057  -0.00634   0.06941  -0.02280
  16 2   C  1S         -0.00198   0.00966   0.02564   0.00275   0.00236
  17        2S         -0.01434   0.11905   0.43440   0.06693   0.04785
  18        2PX         0.00755  -0.11042  -0.10789   0.11067   0.27685
  19        2PY         0.00883  -0.05024  -0.15273  -0.00033   0.04169
  20        2PZ         0.06604  -0.00092  -0.01370  -0.01828   0.01142
  21        3S          0.04195  -0.09246  -0.55013  -0.17475  -0.15148
  22        3PX         0.05738  -0.53169   0.23218  -0.29814  -0.77405
  23        3PY         0.01183  -0.02567   0.07716  -0.02022  -0.03855
  24        3PZ        -0.41770  -0.04431   0.01073  -0.04088   0.00354
  25        4XX        -0.00305   0.05121   0.22558   0.02490  -0.00073
  26        4YY        -0.00411   0.02322   0.07034   0.00904   0.03283
  27        4ZZ         0.00414  -0.01472  -0.12177  -0.02553  -0.03708
  28        4XY        -0.00365   0.04045   0.10375  -0.06092  -0.21623
  29        4XZ        -0.01382  -0.01366   0.04056  -0.24259   0.08521
  30        4YZ         0.00890   0.00210  -0.00541   0.01484  -0.01768
  31 3   O  1S          0.00157  -0.00104  -0.00295  -0.00148   0.00089
  32        2S          0.01819  -0.01402   0.01814  -0.00263   0.06373
  33        2PX         0.08300  -0.76595   0.19738  -0.08308  -0.38421
  34        2PY        -0.03186  -0.04202  -0.04506  -0.02051  -0.04965
  35        2PZ        -0.91687  -0.09575   0.00502  -0.03555   0.00110
  36        3S         -0.06681   0.06033   0.07924   0.06074  -0.07205
  37        3PX        -0.11252   1.04232  -0.34085   0.19276   0.78137
  38        3PY         0.05539   0.05167   0.05042   0.01539   0.10608
  39        3PZ         1.17460   0.12392  -0.00865   0.05414   0.00056
  40        4XX         0.00380  -0.00099   0.03353   0.00749   0.02336
  41        4YY         0.01001  -0.00912   0.00173   0.00605   0.03420
  42        4ZZ         0.00825  -0.01432  -0.05479  -0.02314  -0.02035
  43        4XY        -0.00244   0.02621  -0.03556   0.01372   0.14824
  44        4XZ        -0.00091  -0.00855   0.01337  -0.08612   0.02567
  45        4YZ         0.02453   0.00350  -0.00138   0.00418   0.00028
  46 4   F  1S         -0.00116   0.00604  -0.03668  -0.02872  -0.04081
  47        2S         -0.04719   0.31826  -0.82010  -0.53496  -0.72564
  48        2PX         0.00563   0.05225  -0.36612  -0.17346  -0.26009
  49        2PY         0.05260  -0.22789   0.01885   0.08323   0.24994
  50        2PZ         0.11066   0.05160  -0.08768   0.54898  -0.23043
  51        3S          0.05695  -0.38058   1.56056   1.14444   1.65681
  52        3PX         0.00786  -0.12325   0.40589   0.18448   0.28114
  53        3PY        -0.05789   0.26371  -0.05593  -0.06907  -0.22073
  54        3PZ        -0.05323  -0.03503   0.08267  -0.56182   0.25091
  55        4XX        -0.01642   0.13123  -0.36980  -0.21390  -0.25437
  56        4YY        -0.02933   0.18859  -0.35595  -0.23854  -0.34296
  57        4ZZ        -0.01920   0.10004  -0.37329  -0.26773  -0.37111
  58        4XY         0.00915  -0.02409  -0.02846  -0.01624  -0.01461
  59        4XZ         0.02139   0.00824  -0.01799   0.07338  -0.03739
  60        4YZ         0.02820  -0.00181   0.01128  -0.05028   0.01695
                          31        32        33        34        35
                           V         V         V         V         V
     Eigenvalues --     1.22134   1.25960   1.26417   1.33370   1.35611
   1 1   F  1S         -0.01466  -0.00882  -0.00453  -0.02702  -0.01187
   2        2S         -0.17060  -0.00414  -0.09044  -0.37572  -0.15190
   3        2PX        -0.35036   0.36871   0.04318   0.01855  -0.00313
   4        2PY         0.36673  -0.19069  -0.19656  -0.38844  -0.07204
   5        2PZ        -0.08590  -0.10402  -0.54564   0.23993  -0.19558
   6        3S          0.44565   0.18631   0.17019   0.88367   0.36872
   7        3PX         0.55428  -0.50076  -0.04952   0.03973   0.03826
   8        3PY        -0.41217   0.25316   0.31610   0.71191   0.15657
   9        3PZ         0.11718   0.14763   0.78231  -0.39556   0.41012
  10        4XX        -0.19145   0.06989  -0.02828  -0.12966  -0.01694
  11        4YY         0.15150  -0.01849  -0.03303  -0.04622  -0.02727
  12        4ZZ        -0.17347  -0.13341  -0.03058  -0.28402  -0.14562
  13        4XY         0.02007   0.01935  -0.03593  -0.12870  -0.03940
  14        4XZ        -0.00007  -0.01818   0.00520   0.12892  -0.38585
  15        4YZ        -0.01422  -0.01626  -0.08116   0.05827  -0.19131
  16 2   C  1S         -0.01340  -0.00249  -0.00647  -0.01285  -0.00343
  17        2S          0.04468   0.00355  -0.05042   0.01698   0.00043
  18        2PX         0.10830  -0.12235  -0.02463  -0.04676   0.00351
  19        2PY        -0.17213  -0.06353   0.05156   0.03397   0.02742
  20        2PZ         0.03007   0.01535   0.14507  -0.04869   0.02370
  21        3S         -1.84233  -0.51998  -0.21534  -1.84225  -0.37869
  22        3PX        -0.32451   0.29337   0.11311   0.12994   0.06182
  23        3PY        -0.59014  -0.16742  -0.32568  -1.17815  -0.19177
  24        3PZ        -0.04033  -0.05014  -0.68714   0.35883  -0.05720
  25        4XX         0.19601   0.04536  -0.03013   0.06399  -0.02917
  26        4YY        -0.18012  -0.03792   0.00059   0.00223   0.05444
  27        4ZZ        -0.10031  -0.03400  -0.02282  -0.23635  -0.06521
  28        4XY        -0.09699   0.07382  -0.00057  -0.04969  -0.07960
  29        4XZ         0.02368   0.03519   0.08302  -0.06734   0.37091
  30        4YZ        -0.01781   0.01493  -0.25452  -0.07869   0.43022
  31 3   O  1S         -0.06322  -0.02035  -0.00769  -0.05622  -0.00886
  32        2S         -1.02898  -0.37923  -0.06773  -0.74267  -0.11956
  33        2PX        -0.01206  -0.09320   0.03664   0.05227   0.03247
  34        2PY         0.21323   0.10734  -0.01612   0.09986   0.02019
  35        2PZ        -0.02116  -0.01781  -0.14363   0.04120  -0.07694
  36        3S          2.91406   0.98184   0.35405   2.63740   0.43400
  37        3PX         0.13242   0.05424  -0.07770  -0.08377  -0.02728
  38        3PY        -1.14510  -0.41136  -0.03784  -0.81004  -0.13526
  39        3PZ         0.09816   0.04651   0.48095  -0.06922  -0.04449
  40        4XX        -0.19775  -0.08563   0.02111  -0.00711   0.00560
  41        4YY        -0.37476  -0.15179   0.00780  -0.22524  -0.05529
  42        4ZZ        -0.28732  -0.07167  -0.10045  -0.41691  -0.05510
  43        4XY         0.03391   0.02709  -0.01231   0.00136   0.04866
  44        4XZ         0.00302   0.00825   0.02079  -0.02273   0.11518
  45        4YZ         0.01850   0.00279   0.20185   0.00666  -0.27759
  46 4   F  1S         -0.02568   0.00484   0.00130  -0.01982  -0.00432
  47        2S         -0.36190  -0.00026  -0.00159  -0.38253  -0.09150
  48        2PX        -0.04706   0.49842   0.04308   0.24960   0.03700
  49        2PY         0.12442   0.55607  -0.24470  -0.42779  -0.15616
  50        2PZ        -0.13755  -0.01481  -0.49941   0.21624   0.07837
  51        3S          0.98584  -0.07747  -0.06110   0.78508   0.17788
  52        3PX        -0.00601  -0.62265  -0.04662  -0.35355  -0.05056
  53        3PY        -0.07942  -0.68817   0.33377   0.68033   0.23109
  54        3PZ         0.17045   0.02136   0.67637  -0.31647  -0.11190
  55        4XX        -0.12792  -0.11323  -0.01972  -0.18008   0.00002
  56        4YY        -0.05634   0.13285   0.00699  -0.06252  -0.06893
  57        4ZZ        -0.29823   0.02763   0.02548  -0.20381  -0.03736
  58        4XY        -0.06395  -0.05141   0.04614   0.11583   0.08492
  59        4XZ        -0.01446  -0.00437  -0.02056  -0.05054  -0.05982
  60        4YZ        -0.00234   0.00343  -0.02618  -0.01019   0.13179
                          36        37        38        39        40
                           V         V         V         V         V
     Eigenvalues --     1.37630   1.54549   1.61279   1.73678   1.75216
   1 1   F  1S         -0.00368   0.00912  -0.00405   0.01624   0.00068
   2        2S         -0.06316  -0.27458   0.35759   0.36225  -0.02129
   3        2PX        -0.00375  -0.20970   0.31567   0.19268  -0.02119
   4        2PY        -0.05432  -0.23157   0.10122  -0.16460   0.01320
   5        2PZ        -0.01422   0.00882   0.01991   0.03352   0.00191
   6        3S          0.13790   0.30321  -0.47893  -0.84593   0.03146
   7        3PX         0.00865   0.11689  -0.35990  -0.40050   0.03453
   8        3PY         0.10600   0.37568   0.08316   0.33006  -0.02854
   9        3PZ         0.00263  -0.02004  -0.02731  -0.05957   0.00012
  10        4XX         0.02860   0.17168   0.41183  -0.21137   0.10622
  11        4YY        -0.05966  -0.42890   0.01248  -0.09801  -0.01529
  12        4ZZ        -0.04074   0.07528  -0.12377   0.65325  -0.09891
  13        4XY        -0.04808  -0.13040  -0.11112   0.48854  -0.09523
  14        4XZ        -0.03705   0.00028   0.08917  -0.14370  -0.51855
  15        4YZ         0.20352  -0.08698  -0.05625   0.05410   0.72685
  16 2   C  1S         -0.00321  -0.01515   0.00029   0.02732  -0.00340
  17        2S          0.00513   0.13582   0.04579   0.05208   0.00934
  18        2PX        -0.02386  -0.02362   0.06234   0.00318  -0.00522
  19        2PY         0.02151  -0.01767   0.11779  -0.07746   0.01626
  20        2PZ        -0.01778   0.00050   0.00515   0.01536   0.02122
  21        3S         -0.25352  -1.11721  -0.67788  -1.22110   0.04289
  22        3PX        -0.01429  -0.11830   0.18480  -0.04219  -0.03294
  23        3PY        -0.10653  -0.79091  -0.80016  -1.63676   0.09902
  24        3PZ        -0.09341   0.06193   0.02985   0.06457  -0.01086
  25        4XX        -0.03180  -0.13546  -0.25625   0.17720  -0.02606
  26        4YY         0.04410  -0.00942   0.13730  -0.39227   0.03800
  27        4ZZ        -0.04583   0.11420   0.17907   0.28301  -0.01809
  28        4XY         0.02403   0.40165  -0.19214  -0.00333   0.01091
  29        4XZ        -0.43210   0.04930  -0.02822  -0.00850   0.01933
  30        4YZ         0.37880   0.01971  -0.02605   0.04748  -0.03296
  31 3   O  1S         -0.00509  -0.03079  -0.01790  -0.04561   0.00375
  32        2S         -0.08745  -0.59312  -0.70765  -0.58855   0.00184
  33        2PX         0.00059  -0.09021   0.04237   0.00872  -0.00394
  34        2PY         0.02241   0.12631   0.30181  -0.16452   0.03707
  35        2PZ        -0.06036  -0.01236  -0.01421  -0.00405   0.04873
  36        3S          0.28206   1.83197   1.75257   2.49751  -0.10600
  37        3PX        -0.01280   0.04403  -0.04995   0.00600   0.01037
  38        3PY        -0.09771  -0.63072  -0.67884  -0.69216   0.01155
  39        3PZ        -0.03416   0.03062   0.04412   0.05521  -0.05707
  40        4XX         0.00216  -0.14781  -0.43339  -0.03818  -0.06070
  41        4YY        -0.04300  -0.18873  -0.25088  -0.27190   0.02315
  42        4ZZ        -0.02887  -0.07352   0.25631  -0.00721   0.04515
  43        4XY        -0.03839  -0.32907   0.17020  -0.02918  -0.03917
  44        4XZ        -0.13710   0.07959  -0.04554  -0.07920  -0.17602
  45        4YZ        -0.24170  -0.01291   0.06303  -0.00253   0.18829
  46 4   F  1S         -0.00831  -0.02558   0.01571   0.01766  -0.00563
  47        2S         -0.11823   0.22945   0.31471   0.06279   0.00151
  48        2PX         0.04216  -0.33980  -0.16857  -0.01316  -0.02220
  49        2PY        -0.05568   0.09246  -0.05152  -0.13450   0.01101
  50        2PZ        -0.38294   0.03010   0.01146   0.00989  -0.03069
  51        3S          0.26631  -0.09366  -0.67936  -0.27480   0.05587
  52        3PX        -0.07742   0.27330   0.30055   0.13273   0.00611
  53        3PY         0.09592   0.01577   0.14753   0.32932  -0.01584
  54        3PZ         0.57497  -0.04090  -0.01905  -0.02478   0.03213
  55        4XX        -0.03289  -0.09092   0.42506   0.17321  -0.03189
  56        4YY        -0.02608   0.31115  -0.13625  -0.06180   0.03553
  57        4ZZ        -0.09210  -0.16328   0.06199   0.06150  -0.04264
  58        4XY         0.02740  -0.08456   0.24025   0.02225   0.03480
  59        4XZ         0.39074  -0.02253  -0.00760  -0.04479  -0.31087
  60        4YZ        -0.13188   0.02065  -0.07851  -0.07450   0.03780
                          41        42        43        44        45
                           V         V         V         V         V
     Eigenvalues --     1.77324   1.79176   1.81307   1.82183   1.85145
   1 1   F  1S         -0.00267  -0.00671  -0.00794  -0.04491  -0.01217
   2        2S         -0.02899   0.09569  -0.12796  -0.92826   0.09141
   3        2PX         0.04308  -0.05383   0.00490  -0.10423  -0.02604
   4        2PY        -0.06323   0.18104  -0.02741  -0.05685   0.22667
   5        2PZ        -0.04573  -0.00375  -0.01196   0.00886   0.00077
   6        3S          0.08952  -0.13127   0.32860   2.23894  -0.00974
   7        3PX        -0.08285   0.21252   0.03674   0.50188   0.15290
   8        3PY         0.14113  -0.37885   0.09024   0.29867  -0.29862
   9        3PZ         0.05734   0.00193   0.01931  -0.00361  -0.00038
  10        4XX        -0.06182  -0.08806  -0.07360  -0.49359   0.31291
  11        4YY         0.05057  -0.14433  -0.07339  -0.20718  -0.54302
  12        4ZZ        -0.02670   0.24669   0.02146  -0.11024   0.22557
  13        4XY        -0.01412   0.19742  -0.01942  -0.21463  -0.00581
  14        4XZ         0.06306   0.04477   0.07715  -0.00357  -0.00011
  15        4YZ         0.34928   0.04191   0.01777  -0.00423   0.06451
  16 2   C  1S          0.00280  -0.00285   0.00546   0.02675  -0.00313
  17        2S         -0.04529   0.22258   0.05118   0.40006   0.16371
  18        2PX        -0.01406   0.10224   0.00297   0.05660   0.09619
  19        2PY        -0.00142   0.00207  -0.00561  -0.10520   0.09402
  20        2PZ        -0.02606  -0.01529  -0.00679  -0.01755  -0.00800
  21        3S         -0.07134  -0.25804  -0.38178  -1.99198  -0.49837
  22        3PX         0.27675  -0.93113   0.10164   0.20452  -0.38662
  23        3PY        -0.33821   0.95255  -0.12952   0.19638   0.27107
  24        3PZ         0.01335   0.01409   0.01812   0.10769   0.02380
  25        4XX         0.07457  -0.26553   0.00775  -0.13974  -0.20869
  26        4YY        -0.07545   0.21387  -0.04637  -0.10805   0.14307
  27        4ZZ         0.02365  -0.02396   0.04837   0.25961   0.04740
  28        4XY        -0.02593   0.06063  -0.01844  -0.05536  -0.00787
  29        4XZ        -0.00795   0.02234   0.01154  -0.01107   0.00696
  30        4YZ         0.02193  -0.02710   0.00640   0.00659  -0.02173
  31 3   O  1S         -0.00686   0.01622  -0.00530  -0.01924   0.01212
  32        2S         -0.09631   0.16216  -0.09580  -0.18761  -0.25885
  33        2PX         0.00504  -0.03041   0.01250   0.01753   0.04804
  34        2PY        -0.03315   0.12292  -0.01123  -0.06696   0.20293
  35        2PZ         0.02154   0.00980   0.04052   0.00441   0.00550
  36        3S          0.41346  -0.86499   0.35763   0.84913   0.22559
  37        3PX        -0.06354   0.22949  -0.03578  -0.06368   0.01672
  38        3PY        -0.10764   0.17733  -0.11599  -0.29499  -0.20487
  39        3PZ        -0.01989  -0.04241  -0.05012  -0.00941  -0.01736
  40        4XX        -0.03485  -0.14111  -0.09926  -0.46388   0.43311
  41        4YY        -0.04919   0.11264  -0.03183  -0.05813  -0.06562
  42        4ZZ         0.04108   0.09710   0.08976   0.40135  -0.42080
  43        4XY         0.02214  -0.00053   0.01455   0.02127   0.34648
  44        4XZ         0.84443   0.17216  -0.32098   0.02739   0.05111
  45        4YZ         0.06595   0.01885   0.09840  -0.02089   0.01206
  46 4   F  1S          0.01949  -0.06161  -0.00013  -0.03491  -0.03389
  47        2S          0.23992  -0.97760  -0.03151  -0.59518  -0.35096
  48        2PX        -0.03100   0.17549   0.00937   0.10838   0.00684
  49        2PY        -0.01057   0.01140  -0.01567  -0.03593   0.01482
  50        2PZ         0.03065  -0.01193  -0.01489   0.01122  -0.00425
  51        3S         -0.63209   2.40160   0.05185   1.40132   1.00438
  52        3PX         0.14946  -0.61846  -0.02119  -0.40741  -0.20096
  53        3PY        -0.00688   0.09097   0.03158   0.11127   0.04564
  54        3PZ        -0.04250   0.03720   0.01629  -0.01727   0.01400
  55        4XX         0.19933  -0.43036  -0.01761  -0.57172  -0.37389
  56        4YY        -0.02446   0.01572  -0.02338  -0.35235  -0.36774
  57        4ZZ         0.11137  -0.61107   0.02090   0.32164   0.30072
  58        4XY        -0.05941   0.60176   0.00991  -0.09401  -0.08782
  59        4XZ         0.24819   0.01321   0.26089  -0.02369   0.02187
  60        4YZ         0.19767   0.03960   0.88780  -0.12242   0.03901
                          46        47        48        49        50
                           V         V         V         V         V
     Eigenvalues --     1.91007   1.93186   1.99842   2.10020   2.41891
   1 1   F  1S         -0.07460  -0.02810   0.02937  -0.01416   0.00189
   2        2S         -1.12609  -0.52442   0.23617   0.02267  -0.09841
   3        2PX         0.03665  -0.02378  -0.11025   0.14427   0.00063
   4        2PY         0.00523  -0.00189  -0.03064   0.03006  -0.05177
   5        2PZ        -0.03758  -0.00875  -0.13283  -0.10843  -0.06373
   6        3S          3.14679   1.35965  -0.86833   0.19229   0.19381
   7        3PX         0.38503   0.26187  -0.05336  -0.11716  -0.02257
   8        3PY         0.33272   0.09490  -0.15503   0.09842   0.14840
   9        3PZ         0.09814   0.02870   0.26029   0.25846   0.20718
  10        4XX        -0.53310  -0.41128   0.15995  -0.11747  -0.11096
  11        4YY        -0.67305   0.04166  -0.11038   0.22221   0.06361
  12        4ZZ         0.13255  -0.08377   0.22067  -0.14017   0.03040
  13        4XY        -0.20184  -0.04060   0.15903  -0.15714   0.07322
  14        4XZ         0.01733   0.00247   0.39549   0.36908   0.20382
  15        4YZ         0.00786   0.00981   0.17839   0.18887   0.39865
  16 2   C  1S          0.00399  -0.00484  -0.03693   0.03481  -0.02565
  17        2S         -0.09444   0.13318  -0.21203   0.15396   0.00819
  18        2PX        -0.16822  -0.02863  -0.07301   0.10501   0.16644
  19        2PY         0.07003   0.03729   0.11612  -0.11690  -0.07898
  20        2PZ        -0.02432  -0.01006  -0.19676  -0.18982  -0.13416
  21        3S          0.00811  -0.25010   0.89721  -0.45694   0.10606
  22        3PX         1.95226   0.34786  -0.36648   0.25760   0.33231
  23        3PY         0.92268   0.78153   0.11671  -0.29076  -0.14793
  24        3PZ        -0.02111   0.01055  -0.40129  -0.33651  -0.11897
  25        4XX        -0.04158  -0.23392   0.17071  -0.15677  -0.05155
  26        4YY         0.17902   0.19985   0.22523  -0.30374   0.04167
  27        4ZZ        -0.07755   0.04229  -0.56902   0.67992  -0.09953
  28        4XY        -0.40430  -0.04448   0.08564  -0.03450   0.02791
  29        4XZ        -0.05180  -0.00305  -0.00671  -0.04688   0.72523
  30        4YZ        -0.01914  -0.02244   0.04446   0.07079  -0.43985
  31 3   O  1S          0.01655   0.01771   0.01712  -0.01249   0.00045
  32        2S          0.14496  -0.03131   0.00904   0.06132  -0.11083
  33        2PX         0.22466  -0.12140  -0.04880   0.03194   0.01861
  34        2PY         0.09641   0.16081   0.15362  -0.20392   0.05900
  35        2PZ        -0.00290   0.00526  -0.09422  -0.06228  -0.02392
  36        3S         -0.86514  -0.48755  -0.50226   0.34229   0.20249
  37        3PX        -0.68594   0.11060   0.14478  -0.11234  -0.12672
  38        3PY         0.18567   0.03663   0.11840  -0.01026  -0.09982
  39        3PZ        -0.01607  -0.03080   0.22743   0.23029   0.22275
  40        4XX         0.03267   0.30901  -0.22266   0.27510  -0.04323
  41        4YY         0.04886  -0.03719   0.00046  -0.07582   0.00693
  42        4ZZ        -0.00676  -0.24680   0.25161  -0.16279   0.01007
  43        4XY         0.16330  -0.49742  -0.10660   0.13453   0.10807
  44        4XZ        -0.00065  -0.03134   0.02201   0.01705  -0.22531
  45        4YZ        -0.03219   0.00190  -0.37287  -0.38888  -0.50746
  46 4   F  1S          0.05368  -0.01777   0.01017  -0.00356  -0.00300
  47        2S          0.61046   0.08193  -0.05676   0.20002   0.31007
  48        2PX         0.07363  -0.00580   0.06152  -0.11263  -0.08489
  49        2PY         0.13360   0.25510  -0.02837   0.02063   0.03241
  50        2PZ         0.00712  -0.00212  -0.12499  -0.10064   0.08747
  51        3S         -1.78850   0.03642   0.01706  -0.34580  -0.60098
  52        3PX         0.12718  -0.10583  -0.03421   0.18488   0.23226
  53        3PY        -0.48542  -0.41913   0.01901  -0.01195  -0.09248
  54        3PZ        -0.02835   0.00516   0.24334   0.21209  -0.20245
  55        4XX         0.50924   0.32227   0.10498  -0.14079  -0.03045
  56        4YY         0.38404  -0.59438  -0.23114   0.26762   0.06952
  57        4ZZ        -0.18431   0.20503   0.16001  -0.04084   0.04350
  58        4XY        -0.09685   0.36583  -0.10739   0.14323   0.04658
  59        4XZ        -0.08597  -0.02471  -0.48432  -0.42198   0.50895
  60        4YZ        -0.01790   0.01747   0.14944   0.14613  -0.21217
                          51        52        53        54        55
                           V         V         V         V         V
     Eigenvalues --     2.55732   2.58642   2.67924   2.85778   2.97690
   1 1   F  1S          0.01119   0.00063  -0.04970   0.02160   0.00705
   2        2S         -0.18467   0.30010   0.76619  -0.19462  -0.88419
   3        2PX        -0.08397  -0.04929   0.22215  -0.10866  -0.06256
   4        2PY        -0.02214   0.15593   0.09616  -0.04398  -0.05861
   5        2PZ        -0.06846   0.00099   0.00523  -0.00337   0.00065
   6        3S          0.26048  -0.70420  -1.23105   0.21944   1.92787
   7        3PX         0.14243   0.06801  -0.61166   0.05847   1.09351
   8        3PY        -0.02098  -0.61909  -0.20664  -0.03341   0.83362
   9        3PZ         0.27722   0.00053   0.02514  -0.01697   0.05838
  10        4XX         0.06284   0.34817  -0.41677   0.08766   0.53539
  11        4YY        -0.07839  -0.33830   0.02693  -0.08420   0.17376
  12        4ZZ         0.03111   0.02577   0.10699   0.07088  -0.42906
  13        4XY        -0.04811  -0.39398  -0.13413  -0.19915   0.91200
  14        4XZ         0.57507   0.01230   0.12356  -0.02740   0.07916
  15        4YZ         0.27116   0.03396   0.08812  -0.01979   0.07136
  16 2   C  1S          0.01153   0.09447   0.00610   0.03037   0.11613
  17        2S          0.01954   0.00627  -0.21529  -0.96921  -1.52512
  18        2PX         0.02807  -0.62047  -0.46214  -0.16282   0.60972
  19        2PY         0.16342   0.39735  -0.66771  -0.89558   0.52139
  20        2PZ         0.02866  -0.05143   0.01338   0.04891   0.06112
  21        3S          0.12495  -0.08800  -0.84330  -1.36450  -1.72780
  22        3PX         0.06194  -1.20350  -0.86452   0.08836   0.16588
  23        3PY         0.30417   0.76764  -1.05959  -0.33575   0.00898
  24        3PZ         0.04487  -0.04041   0.02329   0.05337   0.06866
  25        4XX         0.10984   0.17662  -0.29704   0.44682  -0.52491
  26        4YY        -0.08104  -0.11154   0.16796  -0.74365   0.48038
  27        4ZZ         0.02321   0.42396   0.16829   0.46832   0.88864
  28        4XY         0.07590   0.00682  -0.25700   0.55732  -0.48268
  29        4XZ         0.52159   0.20614   0.18778  -0.01266  -0.02344
  30        4YZ         0.82346  -0.25079   0.22375   0.00775  -0.02891
  31 3   O  1S          0.00196   0.00344  -0.01399  -0.03754  -0.02738
  32        2S          0.23137   0.47643  -0.69780  -0.50057  -0.29029
  33        2PX         0.00627  -0.04265  -0.02316  -0.00940   0.01554
  34        2PY        -0.08908  -0.13007   0.11128  -0.20805   0.09449
  35        2PZ        -0.00017   0.01311  -0.01833   0.01816  -0.00294
  36        3S         -0.53960  -1.16045   1.99533   1.94983   0.97489
  37        3PX        -0.04467   0.42993   0.39045  -0.14459   0.01389
  38        3PY         0.24980   0.60217  -0.98435  -1.27822  -0.38978
  39        3PZ        -0.27061   0.04881   0.01615   0.06318   0.00739
  40        4XX         0.07920   0.19338  -0.26028  -0.53742  -0.09942
  41        4YY        -0.05397  -0.35860   0.56843   1.15943   0.03678
  42        4ZZ         0.01894   0.18991  -0.33937  -0.51721  -0.17659
  43        4XY         0.05695  -0.38358  -0.46903   0.31800  -0.12712
  44        4XZ        -0.14820  -0.00705  -0.00258  -0.01886   0.00805
  45        4YZ         0.66945  -0.19713   0.08438  -0.13130  -0.01832
  46 4   F  1S          0.00371   0.02120  -0.01355  -0.00568  -0.00713
  47        2S         -0.05722  -1.03320  -0.30383  -0.25356  -0.42313
  48        2PX         0.03397   0.26167  -0.00780   0.09162   0.08298
  49        2PY         0.02080  -0.07727  -0.12561   0.03413  -0.05533
  50        2PZ         0.01580  -0.00194  -0.00219  -0.00078  -0.00088
  51        3S          0.07257   1.96141   0.79720   0.53577   0.89321
  52        3PX        -0.08648  -0.89134  -0.11734  -0.36086  -0.44009
  53        3PY        -0.07121   0.28746   0.49084  -0.02603   0.24627
  54        3PZ        -0.04662   0.01401   0.00847   0.00598   0.00918
  55        4XX         0.09851   0.41145  -0.21062   0.39081   0.10581
  56        4YY        -0.04991  -0.17287   0.12822  -0.33920  -0.01902
  57        4ZZ        -0.03360  -0.28661  -0.08422  -0.13083  -0.18437
  58        4XY         0.06455  -0.20121  -0.44403   0.08288  -0.33587
  59        4XZ         0.03730   0.08281   0.01798  -0.02731  -0.02127
  60        4YZ        -0.17005  -0.02731   0.00198  -0.00059   0.02430
                          56        57        58        59        60
                           V         V         V         V         V
     Eigenvalues --     3.02574   3.69550   4.07407   4.25197   4.59964
   1 1   F  1S          0.00936  -0.12837  -0.24592   0.12016  -0.69714
   2        2S          0.15503  -0.32559  -0.76464   0.23721  -2.73048
   3        2PX        -0.01831   0.00157  -0.17682   0.07027  -0.25482
   4        2PY        -0.06343  -0.04055   0.00574   0.11640  -0.19198
   5        2PZ        -0.00019   0.00983  -0.00095   0.01341  -0.02356
   6        3S         -0.46622   1.61422   3.18417  -1.27474  10.54548
   7        3PX        -0.48270   0.13739   0.49819   0.52983   1.45070
   8        3PY        -0.01306   0.29826  -0.20744   0.05962   1.07949
   9        3PZ        -0.03371  -0.02488  -0.00578   0.00431   0.10817
  10        4XX        -0.65926  -0.47891  -0.89185   0.90385  -2.46190
  11        4YY         0.42953  -0.51377  -1.12245   0.52116  -2.70040
  12        4ZZ         0.15432  -0.45552  -1.00445   0.36505  -2.99290
  13        4XY        -0.13767   0.10914  -0.06774   0.31128   0.41947
  14        4XZ        -0.06106  -0.00941   0.00231   0.04314   0.03488
  15        4YZ        -0.00062   0.01144  -0.02231   0.01935   0.02779
  16 2   C  1S          0.05048  -0.01326   0.18156  -0.37049  -0.17571
  17        2S          0.24542  -0.00849  -1.00772   2.42437   0.64950
  18        2PX        -0.56311   0.01367  -0.10827   0.02344   0.39940
  19        2PY         0.30133   0.02232   0.18590   0.05792   0.16519
  20        2PZ        -0.01320   0.00887  -0.00614   0.05420   0.03702
  21        3S         -0.12529  -2.62273  -0.83572  -0.49687  -1.01658
  22        3PX        -0.15768  -0.05855  -0.63717  -1.10545   2.40533
  23        3PY        -0.00577  -1.14859   1.51514   0.20962   1.19851
  24        3PZ         0.01422   0.12413   0.05241   0.04529   0.08130
  25        4XX        -0.62600  -0.14111   0.76472  -2.07823  -0.83669
  26        4YY         0.83568   0.04966   0.65415  -1.97342  -0.82335
  27        4ZZ         0.07924   0.15848   0.72092  -1.18190  -0.40933
  28        4XY         1.02745   0.01142   0.04803  -0.13676  -0.04617
  29        4XZ         0.00776  -0.00402   0.01649   0.01811  -0.04441
  30        4YZ         0.00176   0.00060  -0.02198  -0.01088  -0.01050
  31 3   O  1S          0.01261  -0.49500   0.18736   0.03235   0.06634
  32        2S         -0.02258  -0.17429   0.30109  -0.03239   0.11462
  33        2PX        -0.02790  -0.00264  -0.01138  -0.01982   0.07759
  34        2PY         0.22111   0.21325  -0.08065  -0.23584  -0.14247
  35        2PZ        -0.01570  -0.00825   0.01495   0.01575   0.01713
  36        3S         -0.29113   5.43918  -2.60956   0.02994  -0.95750
  37        3PX        -0.18825   0.01972   0.14252   0.31488  -0.69046
  38        3PY         0.34305  -1.22946   0.75156  -0.39309   0.01691
  39        3PZ        -0.02727   0.04475  -0.07980   0.01240  -0.04545
  40        4XX         0.19523  -1.72955   0.61247   0.06991   0.18074
  41        4YY        -0.49338  -1.41052   0.37194   0.52789   0.39944
  42        4ZZ         0.14999  -1.68158   0.75144   0.06718   0.21696
  43        4XY         0.51099   0.00079  -0.02988  -0.12538   0.19470
  44        4XZ        -0.03186   0.00069   0.00557   0.01549  -0.02754
  45        4YZ         0.06427  -0.01179   0.02394  -0.03956  -0.00681
  46 4   F  1S         -0.03071  -0.16451  -0.53449  -0.32956   0.22179
  47        2S         -0.49205  -0.41462  -1.56481  -1.34798   0.70777
  48        2PX         0.06888   0.02648   0.24211   0.19642  -0.03337
  49        2PY        -0.05536  -0.03814  -0.04411  -0.09455   0.13291
  50        2PZ        -0.00244   0.00537  -0.00809  -0.01228   0.01665
  51        3S          1.10965   2.01934   6.75808   4.86849  -3.10015
  52        3PX        -0.63841  -0.22963  -0.81032  -1.01588   0.01540
  53        3PY         0.33229   0.23658   0.09884   0.49021  -0.50442
  54        3PZ         0.03243  -0.01207   0.02523   0.05390  -0.05153
  55        4XX         0.41594  -0.55859  -2.00530  -0.86913   1.10184
  56        4YY        -0.25520  -0.71379  -2.20153  -1.36950   0.77669
  57        4ZZ        -0.39582  -0.60106  -2.19425  -1.52729   0.85017
  58        4XY        -0.43992  -0.10070   0.00219  -0.35594   0.03655
  59        4XZ        -0.06213   0.00302  -0.00288  -0.03717  -0.00798
  60        4YZ         0.02548   0.01234  -0.01162   0.02089  -0.01671
     Density Matrix:
                           1         2         3         4         5
   1 1   F  1S          2.08525
   2        2S         -0.21543   0.57241
   3        2PX         0.03160  -0.05743   0.70205
   4        2PY         0.01765  -0.02702  -0.10625   0.84393
   5        2PZ         0.00262  -0.00301  -0.01383  -0.00845   0.85895
   6        3S         -0.22312   0.56331  -0.15722  -0.09033  -0.01938
   7        3PX         0.01978  -0.04161   0.42181  -0.09047  -0.01284
   8        3PY         0.01137  -0.02080  -0.08861   0.53003  -0.00708
   9        3PZ         0.00162  -0.00200  -0.01138  -0.00667   0.57311
  10        4XX        -0.02279   0.01447   0.03630  -0.00757  -0.00032
  11        4YY        -0.02071   0.01045  -0.00690   0.02674   0.00045
  12        4ZZ        -0.02027   0.00963  -0.00112   0.00174   0.00439
  13        4XY        -0.00226   0.00438   0.00874   0.02269  -0.00052
  14        4XZ        -0.00020   0.00044   0.00094  -0.00073   0.03173
  15        4YZ        -0.00014   0.00031  -0.00071   0.00167   0.01822
  16 2   C  1S          0.00537  -0.01237  -0.08118  -0.04283  -0.00552
  17        2S          0.00148   0.00358   0.18783   0.09878   0.01418
  18        2PX         0.01538  -0.04858  -0.19594  -0.18442  -0.01776
  19        2PY         0.01258  -0.03934  -0.22118  -0.08372  -0.01364
  20        2PZ         0.00085  -0.00376  -0.01387  -0.00748   0.11749
  21        3S          0.01492  -0.03422   0.05316   0.06380  -0.00631
  22        3PX        -0.00585   0.01266   0.04989  -0.02254  -0.01278
  23        3PY        -0.00447   0.00812  -0.05889   0.11231  -0.01385
  24        3PZ        -0.00024  -0.00024  -0.00163  -0.00197   0.05828
  25        4XX        -0.00404   0.01057  -0.00910   0.03637   0.00193
  26        4YY         0.00154  -0.00277   0.00735  -0.03269  -0.00055
  27        4ZZ         0.00304  -0.00743  -0.01262  -0.00794  -0.00254
  28        4XY        -0.00855   0.01974   0.04076   0.01405   0.00363
  29        4XZ        -0.00059   0.00131   0.00289   0.00286  -0.03052
  30        4YZ        -0.00047   0.00114   0.00323   0.00109  -0.02833
  31 3   O  1S         -0.00046   0.00131  -0.00075   0.01600  -0.00129
  32        2S          0.00122  -0.00241  -0.00351  -0.02499  -0.00002
  33        2PX        -0.01889   0.03016   0.03207   0.10875   0.00488
  34        2PY        -0.00942   0.02535   0.03695   0.09276  -0.00590
  35        2PZ        -0.00012  -0.00132   0.00049  -0.00175  -0.14951
  36        3S         -0.00382   0.01036   0.05375  -0.12431   0.02119
  37        3PX        -0.01176   0.01799   0.01656   0.07795   0.00805
  38        3PY        -0.00313   0.00910  -0.00141   0.08388  -0.01216
  39        3PZ        -0.00009  -0.00064   0.00342  -0.00373  -0.12387
  40        4XX        -0.00010   0.00021  -0.00391   0.00828  -0.00111
  41        4YY        -0.00023   0.00004   0.00014   0.00463  -0.00024
  42        4ZZ         0.00006   0.00027  -0.00067   0.00489  -0.00177
  43        4XY         0.00023   0.00010   0.00430  -0.00066  -0.00043
  44        4XZ        -0.00002  -0.00004  -0.00034   0.00027  -0.00194
  45        4YZ        -0.00002   0.00018   0.00033   0.00029   0.00575
  46 4   F  1S          0.00021   0.00071   0.01189  -0.00491  -0.00069
  47        2S          0.00116  -0.00221  -0.01967   0.00229  -0.00187
  48        2PX        -0.01441   0.02274   0.14750  -0.01842   0.00287
  49        2PY        -0.00666  -0.00514   0.01424   0.00179   0.00121
  50        2PZ        -0.00070  -0.00325  -0.00290   0.00176  -0.05230
  51        3S         -0.00432   0.00755  -0.07045   0.04639   0.01164
  52        3PX        -0.00749   0.01041   0.10710  -0.02796  -0.00020
  53        3PY        -0.00475  -0.00318   0.00591  -0.00128   0.00537
  54        3PZ        -0.00047  -0.00226  -0.00321   0.00266  -0.04511
  55        4XX         0.00057  -0.00037   0.00613  -0.00084  -0.00150
  56        4YY         0.00040  -0.00082   0.00356  -0.00628  -0.00104
  57        4ZZ         0.00077  -0.00106   0.00313  -0.00377  -0.00171
  58        4XY         0.00020   0.00015   0.00163  -0.00028  -0.00062
  59        4XZ         0.00001   0.00015   0.00035  -0.00024   0.00072
  60        4YZ        -0.00003  -0.00007  -0.00005  -0.00014  -0.00244
                           6         7         8         9        10
   6        3S          0.62650
   7        3PX        -0.08903   0.25648
   8        3PY        -0.05055  -0.06849   0.33504
   9        3PZ        -0.01193  -0.00973  -0.00527   0.38369
  10        4XX         0.00399   0.02077  -0.00652  -0.00036   0.00328
  11        4YY         0.00408  -0.00598   0.01621   0.00024   0.00043
  12        4ZZ         0.00674  -0.00139   0.00074   0.00290   0.00062
  13        4XY        -0.00017   0.00438   0.01375  -0.00042   0.00071
  14        4XZ        -0.00036   0.00042  -0.00058   0.02083   0.00008
  15        4YZ        -0.00021  -0.00057   0.00099   0.01191  -0.00002
  16 2   C  1S          0.01378  -0.05040  -0.02575  -0.00296  -0.00922
  17        2S         -0.07255   0.10776   0.05341   0.00722   0.01860
  18        2PX         0.03335  -0.10182  -0.09936  -0.01012  -0.00915
  19        2PY         0.01950  -0.12129  -0.04331  -0.00755  -0.01708
  20        2PZ         0.00377  -0.00644  -0.00386   0.05966  -0.00181
  21        3S         -0.06804   0.02886   0.03574  -0.00587   0.00643
  22        3PX         0.04303   0.03771  -0.00893  -0.00809   0.00058
  23        3PY         0.03570  -0.03271   0.07208  -0.00871  -0.00656
  24        3PZ         0.00268  -0.00014  -0.00068   0.02964  -0.00052
  25        4XX         0.01028  -0.00667   0.02256   0.00130  -0.00030
  26        4YY        -0.00164   0.00541  -0.02019  -0.00039   0.00029
  27        4ZZ        -0.00254  -0.00711  -0.00437  -0.00146  -0.00132
  28        4XY         0.02234   0.02554   0.00909   0.00254   0.00151
  29        4XZ         0.00142   0.00173   0.00186  -0.02074   0.00010
  30        4YZ         0.00082   0.00207   0.00047  -0.01974   0.00023
  31 3   O  1S         -0.00313  -0.00241   0.00759  -0.00092  -0.00013
  32        2S          0.00868   0.00214  -0.00912   0.00012   0.00016
  33        2PX         0.14831   0.04249   0.09800   0.00624  -0.00678
  34        2PY         0.03086   0.01591   0.05874  -0.00572   0.00087
  35        2PZ         0.00504   0.00407  -0.00170  -0.12001  -0.00062
  36        3S          0.00629   0.03348  -0.07194   0.01355   0.00513
  37        3PX         0.09451   0.02476   0.06834   0.00742  -0.00478
  38        3PY         0.01826  -0.00346   0.05360  -0.00897  -0.00132
  39        3PZ         0.00248   0.00445  -0.00298  -0.09513  -0.00010
  40        4XX         0.00162  -0.00235   0.00517  -0.00069  -0.00041
  41        4YY        -0.00158   0.00027   0.00270  -0.00002   0.00023
  42        4ZZ         0.00083  -0.00041   0.00306  -0.00128  -0.00013
  43        4XY        -0.00681   0.00126  -0.00202  -0.00047   0.00055
  44        4XZ         0.00043  -0.00012   0.00029  -0.00132  -0.00004
  45        4YZ        -0.00020  -0.00004   0.00020   0.00520   0.00006
  46 4   F  1S         -0.00405   0.00530  -0.00366  -0.00048   0.00046
  47        2S          0.00393  -0.00786   0.00152  -0.00126   0.00018
  48        2PX         0.09709   0.10525  -0.01075   0.00291  -0.00963
  49        2PY         0.09295   0.03030  -0.00072   0.00350  -0.00637
  50        2PZ         0.01609  -0.00017   0.00746  -0.05069  -0.00213
  51        3S          0.00796  -0.04251   0.02710   0.00761  -0.00399
  52        3PX         0.06455   0.07694  -0.01593   0.00067  -0.00601
  53        3PY         0.06040   0.01752  -0.00251   0.00537  -0.00442
  54        3PZ         0.01080  -0.00099   0.00599  -0.04037  -0.00152
  55        4XX        -0.00577   0.00318  -0.00085  -0.00109   0.00153
  56        4YY         0.00285   0.00319  -0.00360  -0.00058   0.00001
  57        4ZZ        -0.00001   0.00229  -0.00225  -0.00117   0.00014
  58        4XY        -0.00171   0.00042  -0.00019  -0.00049  -0.00001
  59        4XZ        -0.00034   0.00017  -0.00035   0.00123   0.00005
  60        4YZ         0.00036   0.00006  -0.00002  -0.00195  -0.00003
                          11        12        13        14        15
  11        4YY         0.00175
  12        4ZZ         0.00062   0.00048
  13        4XY         0.00093   0.00015   0.00105
  14        4XZ         0.00000   0.00017   0.00000   0.00128
  15        4YZ         0.00008   0.00011   0.00004   0.00076   0.00047
  16 2   C  1S         -0.00241   0.00084  -0.00716  -0.00078  -0.00052
  17        2S          0.00642   0.00089   0.01294   0.00141   0.00095
  18        2PX        -0.01199  -0.00330  -0.00949  -0.00108  -0.00099
  19        2PY         0.00094  -0.00244  -0.00144  -0.00106  -0.00006
  20        2PZ        -0.00117   0.00034  -0.00088   0.00988   0.00715
  21        3S          0.00241  -0.00022   0.00525   0.00037   0.00045
  22        3PX        -0.00434  -0.00164   0.00004  -0.00039  -0.00042
  23        3PY         0.00137  -0.00156   0.00231  -0.00054   0.00009
  24        3PZ        -0.00046   0.00010  -0.00010   0.00474   0.00323
  25        4XX         0.00076   0.00015   0.00052   0.00006   0.00008
  26        4YY        -0.00072  -0.00003  -0.00067   0.00000  -0.00005
  27        4ZZ        -0.00058  -0.00020  -0.00086  -0.00018  -0.00012
  28        4XY        -0.00019  -0.00006   0.00115   0.00020   0.00011
  29        4XZ         0.00010  -0.00017   0.00016  -0.00111  -0.00072
  30        4YZ        -0.00002  -0.00006   0.00003  -0.00070  -0.00022
  31 3   O  1S         -0.00024   0.00013  -0.00011  -0.00001   0.00001
  32        2S          0.00049  -0.00014   0.00048  -0.00009  -0.00002
  33        2PX        -0.00892  -0.00460   0.00268  -0.00018   0.00014
  34        2PY        -0.00311   0.00109  -0.00501   0.00026   0.00004
  35        2PZ        -0.00073  -0.00049  -0.00009   0.00140   0.00362
  36        3S         -0.00226   0.00167  -0.00420   0.00073  -0.00005
  37        3PX        -0.00550  -0.00293   0.00183   0.00004   0.00022
  38        3PY        -0.00101   0.00007  -0.00172  -0.00018   0.00001
  39        3PZ        -0.00051  -0.00033  -0.00017  -0.00017   0.00180
  40        4XX         0.00005  -0.00009   0.00008  -0.00005  -0.00001
  41        4YY         0.00050  -0.00007   0.00079  -0.00004   0.00000
  42        4ZZ         0.00002  -0.00004   0.00007  -0.00003   0.00001
  43        4XY         0.00064   0.00027   0.00012   0.00001   0.00000
  44        4XZ        -0.00003  -0.00003  -0.00000  -0.00007  -0.00005
  45        4YZ         0.00004   0.00002  -0.00000  -0.00024  -0.00031
  46 4   F  1S         -0.00003   0.00070  -0.00028  -0.00003  -0.00007
  47        2S         -0.00005  -0.00053   0.00004  -0.00009  -0.00005
  48        2PX        -0.00428  -0.00421   0.00117   0.00022   0.00009
  49        2PY        -0.01255  -0.00772  -0.00013   0.00027  -0.00023
  50        2PZ        -0.00148  -0.00233   0.00051  -0.00028  -0.00292
  51        3S          0.00372   0.00047   0.00004   0.00030   0.00046
  52        3PX        -0.00409  -0.00315   0.00043   0.00006  -0.00006
  53        3PY        -0.00809  -0.00499  -0.00026   0.00033  -0.00007
  54        3PZ        -0.00090  -0.00163   0.00037  -0.00072  -0.00236
  55        4XX         0.00002   0.00014   0.00030  -0.00002  -0.00004
  56        4YY        -0.00063  -0.00027  -0.00009  -0.00004  -0.00005
  57        4ZZ        -0.00031  -0.00012  -0.00005  -0.00005  -0.00006
  58        4XY         0.00025   0.00018  -0.00011  -0.00003  -0.00001
  59        4XZ         0.00004   0.00006  -0.00002  -0.00010   0.00000
  60        4YZ        -0.00005  -0.00005   0.00000  -0.00002  -0.00002
                          16        17        18        19        20
  16 2   C  1S          2.04548
  17        2S         -0.07817   0.39774
  18        2PX        -0.00116   0.00162   0.30783
  19        2PY        -0.02343   0.05687   0.00630   0.39639
  20        2PZ        -0.00177   0.00346   0.00115  -0.00223   0.32620
  21        3S         -0.08206   0.17835   0.02808   0.00594   0.01606
  22        3PX        -0.00697   0.01310   0.04565  -0.01304  -0.00075
  23        3PY         0.00473  -0.00983  -0.01470   0.03157   0.00425
  24        3PZ        -0.00418   0.00930  -0.00033   0.00043   0.15130
  25        4XX        -0.01076  -0.01250  -0.00170  -0.02819   0.00006
  26        4YY        -0.01594  -0.00192  -0.00043   0.01612   0.00062
  27        4ZZ        -0.00917  -0.02158   0.00364  -0.00091  -0.00176
  28        4XY        -0.00081   0.00379  -0.01606  -0.01020  -0.00045
  29        4XZ         0.00000   0.00011  -0.00223  -0.00046  -0.00336
  30        4YZ        -0.00004   0.00006  -0.00044  -0.00288   0.01476
  31 3   O  1S          0.00965  -0.00842   0.00095  -0.03743   0.00271
  32        2S         -0.02312   0.02408  -0.00304   0.09019  -0.00664
  33        2PX        -0.00590   0.01701   0.18153  -0.00746  -0.00210
  34        2PY         0.11094  -0.27843   0.00305  -0.36851   0.03287
  35        2PZ        -0.01124   0.02540  -0.00123   0.02166   0.36385
  36        3S          0.02023  -0.08421  -0.00092  -0.03530  -0.00412
  37        3PX        -0.00208   0.00803   0.11459  -0.00293  -0.00136
  38        3PY         0.05456  -0.13485   0.00323  -0.17636   0.01925
  39        3PZ        -0.00602   0.01319  -0.00069   0.01076   0.22711
  40        4XX         0.00132  -0.00320  -0.00012  -0.00318   0.00010
  41        4YY        -0.01088   0.02601  -0.00067   0.02195  -0.00304
  42        4ZZ         0.00057  -0.00132  -0.00002  -0.00292   0.00219
  43        4XY         0.00019  -0.00053  -0.01500   0.00015   0.00008
  44        4XZ         0.00001  -0.00001   0.00088   0.00004  -0.00022
  45        4YZ         0.00103  -0.00228   0.00005  -0.00208  -0.02436
  46 4   F  1S          0.00046   0.00649  -0.00472   0.00451   0.00031
  47        2S         -0.00406  -0.00797   0.02369  -0.01787  -0.00193
  48        2PX         0.07122  -0.16330  -0.24368   0.17816   0.00662
  49        2PY        -0.02161   0.05013   0.11326  -0.04098  -0.00224
  50        2PZ        -0.00438   0.01121   0.01485  -0.00960   0.08515
  51        3S          0.02596  -0.07668  -0.05428   0.01787   0.00276
  52        3PX         0.04609  -0.10044  -0.14225   0.11328   0.00296
  53        3PY        -0.01216   0.02666   0.06798  -0.02454  -0.00140
  54        3PZ        -0.00242   0.00616   0.00924  -0.00606   0.04698
  55        4XX        -0.01103   0.02122   0.01589  -0.01400  -0.00113
  56        4YY        -0.00172   0.00377   0.00760  -0.00007  -0.00070
  57        4ZZ        -0.00072   0.00211   0.00383  -0.00173   0.00001
  58        4XY         0.00444  -0.00843  -0.00739  -0.00064   0.00043
  59        4XZ         0.00062  -0.00119  -0.00104   0.00070  -0.00715
  60        4YZ        -0.00025   0.00049   0.00050   0.00006   0.00357
                          21        22        23        24        25
  21        3S          0.10412
  22        3PX         0.00121   0.04329
  23        3PY         0.00592   0.00414   0.05918
  24        3PZ         0.00906   0.00087   0.00078   0.07280
  25        4XX        -0.00116  -0.00108   0.00882  -0.00026   0.00502
[...]
  42        4ZZ         0.00021  -0.00000   0.00090  -0.00001   0.00002
  43        4XY         0.00000   0.00130   0.00000   0.00000   0.00000
  44        4XZ        -0.00000   0.00000  -0.00000   0.00000   0.00000
  45        4YZ         0.00002   0.00000   0.00000   0.00177  -0.00000
  46 4   F  1S          0.00040   0.00044   0.00008   0.00000  -0.00003
  47        2S         -0.00477  -0.00524  -0.00107   0.00000   0.00104
  48        2PX         0.01051  -0.00246   0.00529   0.00003   0.00103
  49        2PY         0.00241   0.00268   0.00791   0.00001   0.00205
  50        2PZ        -0.00002   0.00011   0.00003   0.00663   0.00001
  51        3S         -0.02490  -0.02421  -0.00466  -0.00001   0.00282
  52        3PX         0.02887  -0.00509   0.01089   0.00005   0.00212
  53        3PY         0.00639   0.00498   0.02619   0.00001   0.00416
  54        3PZ        -0.00009   0.00024   0.00007   0.01813   0.00003
  55        4XX         0.00338   0.00017   0.00106   0.00001   0.00015
  56        4YY         0.00043   0.00135  -0.00019   0.00000   0.00001
  57        4ZZ         0.00021   0.00054   0.00001  -0.00000   0.00000
  58        4XY         0.00032   0.00005   0.00031   0.00000   0.00013
  59        4XZ         0.00000   0.00000   0.00000   0.00063   0.00000
  60        4YZ         0.00000   0.00000   0.00000   0.00012   0.00000
                          26        27        28        29        30
  26        4YY         0.00338
  27        4ZZ         0.00003   0.00156
  28        4XY        -0.00000   0.00000   0.00759
  29        4XZ         0.00000   0.00000   0.00000   0.00183
  30        4YZ        -0.00000  -0.00000  -0.00000  -0.00000   0.00289
  31 3   O  1S         -0.00058   0.00000  -0.00000   0.00000  -0.00000
  32        2S          0.00751  -0.00037   0.00000  -0.00000   0.00005
  33        2PX         0.00000  -0.00000   0.00747   0.00001  -0.00000
  34        2PY         0.00360  -0.00062   0.00003  -0.00000   0.00016
  35        2PZ         0.00005   0.00001   0.00000   0.00000   0.00512
  36        3S          0.01229  -0.00107   0.00000  -0.00000   0.00004
  37        3PX         0.00000   0.00000   0.00794   0.00002  -0.00000
  38        3PY         0.00315  -0.00184   0.00001  -0.00000   0.00005
  39        3PZ         0.00005  -0.00001   0.00000   0.00000   0.00584
  40        4XX        -0.00020   0.00001   0.00000  -0.00000  -0.00000
  41        4YY        -0.00000  -0.00021   0.00000   0.00000   0.00001
  42        4ZZ        -0.00011   0.00001  -0.00000  -0.00000   0.00000
  43        4XY        -0.00000   0.00000   0.00059   0.00000   0.00000
  44        4XZ        -0.00000  -0.00000   0.00000   0.00001  -0.00000
  45        4YZ         0.00001   0.00000   0.00000   0.00000   0.00074
  46 4   F  1S          0.00001   0.00000  -0.00003  -0.00000  -0.00000
  47        2S         -0.00016  -0.00004   0.00084   0.00001   0.00000
  48        2PX        -0.00042  -0.00008   0.00390   0.00003   0.00001
  49        2PY         0.00004  -0.00002  -0.00001   0.00001  -0.00000
  50        2PZ        -0.00000   0.00000   0.00001   0.00109   0.00033
  51        3S         -0.00069  -0.00013   0.00161   0.00001   0.00000
  52        3PX        -0.00186  -0.00078   0.00434   0.00003   0.00001
  53        3PY        -0.00052  -0.00014  -0.00002   0.00001   0.00000
  54        3PZ        -0.00001  -0.00000   0.00002   0.00314   0.00096
  55        4XX        -0.00014  -0.00010   0.00038   0.00000   0.00000
  56        4YY        -0.00001  -0.00001   0.00000   0.00000   0.00000
  57        4ZZ        -0.00000  -0.00000  -0.00001   0.00000  -0.00000
  58        4XY         0.00000  -0.00002  -0.00000   0.00000   0.00000
  59        4XZ        -0.00000   0.00000   0.00000   0.00015   0.00003
  60        4YZ         0.00000   0.00000  -0.00000   0.00003   0.00000
                          31        32        33        34        35
  31 3   O  1S          2.07996
  32        2S         -0.04373   0.52575
  33        2PX         0.00000   0.00000   0.81302
  34        2PY         0.00000   0.00000  -0.00000   0.56395
  35        2PZ         0.00000   0.00000  -0.00000   0.00000   0.57987
  36        3S         -0.04250   0.46212   0.00000   0.00000   0.00000
  37        3PX         0.00000   0.00000   0.26530  -0.00000  -0.00000
  38        3PY         0.00000   0.00000  -0.00000   0.14404   0.00000
  39        3PZ         0.00000   0.00000  -0.00000   0.00000   0.19203
  40        4XX        -0.00036  -0.00583   0.00000   0.00000   0.00000
  41        4YY        -0.00037  -0.00479   0.00000   0.00000   0.00000
  42        4ZZ        -0.00044  -0.00334   0.00000   0.00000   0.00000
  43        4XY         0.00000   0.00000   0.00000   0.00000   0.00000
  44        4XZ        -0.00000  -0.00000   0.00000   0.00000   0.00000
  45        4YZ        -0.00000   0.00000   0.00000   0.00000   0.00000
  46 4   F  1S          0.00000   0.00000   0.00000   0.00000   0.00000
  47        2S          0.00000  -0.00000  -0.00000  -0.00000  -0.00000
  48        2PX         0.00000  -0.00000  -0.00001  -0.00001  -0.00000
  49        2PY         0.00000  -0.00000  -0.00001  -0.00001  -0.00000
  50        2PZ         0.00000   0.00000   0.00000  -0.00000  -0.00000
  51        3S         -0.00000   0.00004  -0.00074  -0.00029   0.00000
  52        3PX         0.00000  -0.00012  -0.00087  -0.00091  -0.00000
  53        3PY         0.00001  -0.00020  -0.00154  -0.00107  -0.00000
  54        3PZ         0.00000   0.00000   0.00000  -0.00000  -0.00037
  55        4XX         0.00000  -0.00000   0.00000  -0.00000  -0.00000
  56        4YY         0.00000  -0.00000   0.00002   0.00001  -0.00000
  57        4ZZ         0.00000  -0.00000   0.00000   0.00000   0.00000
  58        4XY         0.00000  -0.00000  -0.00000   0.00001  -0.00000
  59        4XZ         0.00000   0.00000   0.00000   0.00000   0.00000
  60        4YZ        -0.00000   0.00000   0.00000   0.00000   0.00000
                          36        37        38        39        40
  36        3S          0.80505
  37        3PX         0.00000   0.34444
  38        3PY         0.00000  -0.00000   0.15182
  39        3PZ         0.00000  -0.00000   0.00000   0.25483
  40        4XX        -0.00958   0.00000   0.00000   0.00000   0.00058
  41        4YY        -0.01713   0.00000   0.00000   0.00000   0.00003
  42        4ZZ        -0.00508   0.00000   0.00000   0.00000   0.00012
  43        4XY        -0.00000   0.00000   0.00000   0.00000   0.00000
  44        4XZ        -0.00000   0.00000   0.00000   0.00000   0.00000
  45        4YZ         0.00000   0.00000   0.00000   0.00000  -0.00000
  46 4   F  1S         -0.00000   0.00003   0.00001  -0.00000  -0.00000
  47        2S          0.00004  -0.00046  -0.00027  -0.00000   0.00000
  48        2PX         0.00022  -0.00067  -0.00066  -0.00000  -0.00000
  49        2PY        -0.00157  -0.00158  -0.00208  -0.00000   0.00001
  50        2PZ        -0.00000   0.00000  -0.00000  -0.00060   0.00000
  51        3S          0.00107  -0.00649  -0.00199   0.00000   0.00002
  52        3PX         0.00165  -0.00339  -0.00328   0.00000  -0.00003
  53        3PY        -0.00969  -0.00874  -0.00850  -0.00000   0.00035
  54        3PZ        -0.00000   0.00000  -0.00000  -0.00448   0.00000
  55        4XX         0.00002  -0.00001   0.00003  -0.00000  -0.00000
  56        4YY        -0.00012   0.00045   0.00003  -0.00000   0.00000
  57        4ZZ        -0.00002   0.00007   0.00000  -0.00000   0.00000
  58        4XY        -0.00018  -0.00005   0.00004  -0.00000   0.00000
  59        4XZ        -0.00000   0.00000  -0.00000   0.00000   0.00000
  60        4YZ         0.00000   0.00000   0.00000   0.00004  -0.00000
                          41        42        43        44        45
  41        4YY         0.00314
  42        4ZZ         0.00001   0.00028
  43        4XY         0.00000   0.00000   0.00186
  44        4XZ        -0.00000  -0.00000  -0.00000   0.00002
  45        4YZ         0.00000  -0.00000   0.00000  -0.00000   0.00230
  46 4   F  1S          0.00000   0.00000   0.00000   0.00000  -0.00000
  47        2S         -0.00000  -0.00000  -0.00000  -0.00000  -0.00000
  48        2PX        -0.00000  -0.00000   0.00000   0.00000  -0.00000
  49        2PY         0.00000   0.00000  -0.00000  -0.00000  -0.00000
  50        2PZ         0.00000  -0.00000   0.00000   0.00000  -0.00000
  51        3S         -0.00007  -0.00000  -0.00015  -0.00000   0.00000
  52        3PX        -0.00006  -0.00001  -0.00000  -0.00000  -0.00000
  53        3PY         0.00008   0.00006  -0.00006  -0.00000  -0.00000
  54        3PZ         0.00000   0.00000   0.00000   0.00002  -0.00007
  55        4XX         0.00001  -0.00000   0.00000   0.00000  -0.00000
  56        4YY         0.00000   0.00000   0.00001   0.00000  -0.00000
  57        4ZZ         0.00000   0.00000   0.00000  -0.00000   0.00000
  58        4XY         0.00001   0.00000   0.00000  -0.00000  -0.00000
  59        4XZ         0.00000  -0.00000   0.00000   0.00000   0.00000
  60        4YZ        -0.00000   0.00000   0.00000   0.00000   0.00000
                          46        47        48        49        50
  46 4   F  1S          2.08690
  47        2S         -0.05253   0.56364
  48        2PX         0.00000   0.00000   0.63909
  49        2PY         0.00000   0.00000  -0.00000   0.87557
  50        2PZ         0.00000   0.00000  -0.00000  -0.00000   0.86212
  51        3S         -0.04051   0.44640   0.00000   0.00000   0.00000
  52        3PX         0.00000   0.00000   0.20605  -0.00000  -0.00000
  53        3PY         0.00000   0.00000  -0.00000   0.28933  -0.00000
  54        3PZ         0.00000   0.00000  -0.00000  -0.00000   0.29616
  55        4XX        -0.00053   0.00694   0.00000   0.00000   0.00000
  56        4YY        -0.00042   0.00248   0.00000   0.00000   0.00000
  57        4ZZ        -0.00042   0.00241   0.00000   0.00000   0.00000
  58        4XY        -0.00000   0.00000   0.00000   0.00000   0.00000
  59        4XZ        -0.00000   0.00000   0.00000   0.00000   0.00000
  60        4YZ        -0.00000   0.00000   0.00000   0.00000   0.00000
                          51        52        53        54        55
  51        3S          0.65007
  52        3PX         0.00000   0.26854
  53        3PY         0.00000  -0.00000   0.38377
  54        3PZ         0.00000  -0.00000  -0.00000   0.40822
  55        4XX         0.00519   0.00000   0.00000   0.00000   0.00354
  56        4YY         0.00166   0.00000   0.00000   0.00000   0.00021
  57        4ZZ         0.00261   0.00000   0.00000   0.00000   0.00019
  58        4XY         0.00000   0.00000   0.00000   0.00000   0.00000
  59        4XZ         0.00000   0.00000   0.00000   0.00000   0.00000
  60        4YZ         0.00000   0.00000   0.00000   0.00000   0.00000
                          56        57        58        59        60
  56        4YY         0.00074
  57        4ZZ         0.00014   0.00030
  58        4XY         0.00000   0.00000   0.00085
  59        4XZ         0.00000   0.00000   0.00000   0.00094
  60        4YZ         0.00000   0.00000   0.00000   0.00000   0.00012
     Gross orbital populations:
                           1
   1 1   F  1S          1.99320
   2        2S          0.96765
   3        2PX         0.98956
   4        2PY         1.14694
   5        2PZ         1.15988
   6        3S          0.92427
   7        3PX         0.56592
   8        3PY         0.63974
   9        3PZ         0.69551
  10        4XX         0.02913
  11        4YY         0.01642
  12        4ZZ         0.01135
  13        4XY         0.00621
  14        4XZ         0.00399
  15        4YZ         0.00181
  16 2   C  1S          1.99159
  17        2S          0.72246
  18        2PX         0.55389
  19        2PY         0.67015
  20        2PZ         0.53434
  21        3S          0.20793
  22        3PX         0.10343
  23        3PY         0.08183
  24        3PZ         0.27638
  25        4XX         0.00851
  26        4YY         0.01780
  27        4ZZ        -0.02840
  28        4XY         0.05403
  29        4XZ         0.01351
  30        4YZ         0.02066
  31 3   O  1S          1.99283
  32        2S          0.92944
  33        2PX         1.11735
  34        2PY         0.86525
  35        2PZ         0.82609
  36        3S          1.01992
  37        3PX         0.66326
  38        3PY         0.40610
  39        3PZ         0.54934
  40        4XX        -0.01335
  41        4YY         0.00534
  42        4ZZ        -0.00793
  43        4XY         0.00667
  44        4XZ         0.00008
  45        4YZ         0.01017
  46 4   F  1S          1.99336
  47        2S          0.96173
  48        2PX         0.90408
  49        2PY         1.18203
  50        2PZ         1.16789
  51        3S          0.97576
  52        3PX         0.58382
  53        3PY         0.69918
  54        3PZ         0.72819
  55        4XX         0.03181
  56        4YY         0.00835
  57        4ZZ         0.00662
  58        4XY         0.00379
  59        4XZ         0.00262
  60        4YZ         0.00051
          Condensed to atoms (all electrons):
               1          2          3          4
     1  F    8.924510   0.299967  -0.051507  -0.021373
     2  C    0.299967   4.183875   0.491195   0.253061
     3  O   -0.051507   0.491195   7.987923  -0.057051
     4  F   -0.021373   0.253061  -0.057051   9.075106
 Mulliken charges:
               1
     1  F   -0.151597
     2  C    0.771902
     3  O   -0.370561
     4  F   -0.249744
 Sum of Mulliken charges =  -0.00000
 Mulliken charges with hydrogens summed into heavy atoms:
               1
     1  F   -0.151597
     2  C    0.771902
     3  O   -0.370561
     4  F   -0.249744
 Electronic spatial extent (au):  <R**2>=            215.5301
 Charge=             -0.0000 electrons
 Dipole moment (field-independent basis, Debye):
    X=             -0.7132    Y=             -1.5755    Z=              0.1531  Tot=              1.7362
 Quadrupole moment (field-independent basis, Debye-Ang):
   XX=            -20.6555   YY=            -22.5052   ZZ=            -18.6076
   XY=              0.4891   XZ=             -0.0201   YZ=             -0.0211
 Traceless Quadrupole moment (field-independent basis, Debye-Ang):
   XX=             -0.0661   YY=             -1.9157   ZZ=              1.9818
   XY=              0.4891   XZ=             -0.0201   YZ=             -0.0211
 Octapole moment (field-independent basis, Debye-Ang**2):
  XXX=             -0.6695  YYY=             -8.3818  ZZZ=             -0.1860  XYY=              0.0533
  XXY=             -1.6764  XXZ=             -0.1633  XZZ=             -0.1015  YZZ=             -1.6857
  YYZ=             -0.1462  XYZ=             -0.0044
 Hexadecapole moment (field-independent basis, Debye-Ang**3):
 XXXX=            -93.3929 YYYY=            -92.6424 ZZZZ=            -12.0951 XXXY=              1.2464
 XXXZ=             -0.0261 YYYX=              1.3323 YYYZ=             -0.0665 ZZZX=              0.0071
 ZZZY=             -0.0139 XXYY=            -31.0614 XXZZ=            -17.8991 YYZZ=            -16.6854
 XXYZ=              0.1016 YYXZ=              0.0162 ZZXY=              0.2859
 N-N= 1.121955474370D+02 E-N=-9.655618141324D+02  KE= 3.101295105553D+02
 Orbital energies and kinetic energies (alpha):
                                 1                 2
   1         O               -24.817148         37.082383
   2         O               -24.754529         37.085383
   3         O               -19.204031         29.033188
   4         O               -10.471166         15.896917
   5         O                -1.336411          3.589075
   6         O                -1.224365          3.721347
   7         O                -1.059732          2.826463
   8         O                -0.698764          3.080760
   9         O                -0.603886          2.762670
  10         O                -0.565542          2.576336
  11         O                -0.542091          2.906819
  12         O                -0.467140          3.089460
  13         O                -0.463087          3.094455
  14         O                -0.444036          3.101073
  15         O                -0.377914          2.554085
  16         O                -0.335168          2.664340
  17         V                -0.068841          2.633399
  18         V                -0.001591          3.481869
  19         V                 0.206318          3.267566
  20         V                 0.288309          2.486860
  21         V                 0.468908          2.303337
  22         V                 0.476041          1.931611
  23         V                 0.486280          1.907713
  24         V                 0.548304          2.862054
  25         V                 0.840268          2.664955
  26         V                 0.936500          3.566473
  27         V                 0.941784          3.457768
  28         V                 1.040616          3.255147
  29         V                 1.081273          4.182292
  30         V                 1.117989          3.490455
  31         V                 1.221338          3.076140
  32         V                 1.259601          4.274186
  33         V                 1.264170          4.050341
  34         V                 1.333704          3.708207
  35         V                 1.356108          2.705931
  36         V                 1.376302          2.863391
  37         V                 1.545486          3.607897
  38         V                 1.612790          3.457344
  39         V                 1.736777          3.128366
  40         V                 1.752164          2.836115
  41         V                 1.773243          2.851270
  42         V                 1.791756          3.099713
  43         V                 1.813067          2.827808
  44         V                 1.821830          3.065324
  45         V                 1.851447          3.261545
  46         V                 1.910066          3.286892
  47         V                 1.931861          3.360845
  48         V                 1.998422          3.454532
  49         V                 2.100201          3.644189
  50         V                 2.418907          3.826251
  51         V                 2.557320          3.958044
  52         V                 2.586417          5.163406
  53         V                 2.679242          5.148306
  54         V                 2.857784          4.840749
  55         V                 2.976903          5.674038
  56         V                 3.025744          4.740454
  57         V                 3.695495         10.355210
  58         V                 4.074073         11.492683
  59         V                 4.251970          9.908724
  60         V                 4.599643         12.512700
 Total kinetic energy from orbitals= 3.101295105553D+02
 Unable to Open any file for archive entry.
 1\1\GINC-SPARTAN-BM162\SP\RB3LYP\6-31G(d)\C1F2O1\AKHALILOV\20-Mar-2025
 \0\\# B3LYP/6-31G(d) pop=full density=current\\CF2O Time step 25\\0,1\
 F,0,1.198349,-0.581029,0.047693\C,0,0.068869,0.070908,-0.057668\O,0,0.
 001208,1.338135,-0.080229\F,0,-1.242867,-0.590346,0.056277\\Version=ES
 64L-G16RevC.01\State=1-A\HF=-312.9681934\RMSD=9.135e-09\Dipole=0.31810
 5,-0.6041629,-0.0196151\Quadrupole=-0.0096381,-1.4474957,1.4571338,-0.
 2759513,0.0095686,0.2195805\PG=C01 [X(C1F2O1)]\\@
 The archive entry for this job was punched.


 IF IT HAPPENS, IT MUST BE POSSIBLE.

 -- THE UNNAMED LAW FROM PAUL DICKSON'S 
    "THE OFFICIAL RULES"
 Job cpu time:       0 days  0 hours  0 minutes  2.6 seconds.
 Elapsed time:       0 days  0 hours  0 minutes  0.9 seconds.
 File lengths (MBytes):  RWF=      6 Int=      0 D2E=      0 Chk=      1 Scr=      1
 Normal termination of Gaussian 16 at Thu Mar 20 00:07:51 2025.
