CF2O Time step 30                                                       
SP        RB3LYP                                                      6-31G(d)            
Number of atoms                            I                4
Info1-9                                    I   N=           9
          13          13           0           0           0         110
           1          18        -502
Full Title                                 C   N=           2
CF2O Time step 30       
Route                                      C   N=           4
# B3LYP/6-31G(d) pop=full density=current       
Charge                                     I                0
Multiplicity                               I                1
Number of electrons                        I               32
Number of alpha electrons                  I               16
Number of beta electrons                   I               16
Number of basis functions                  I               60
Number of independent functions            I               60
Number of point charges in /Mol/           I                0
Number of translation vectors              I                0
Atomic numbers                             I   N=           4
           9           6           8           9
Nuclear charges                            R   N=           4
  9.00000000E+00  6.00000000E+00  8.00000000E+00  9.00000000E+00
Current cartesian coordinates              R   N=          12
 -2.19253282E+00 -1.29287422E+00 -2.84075442E-02 -1.58111315E-01  9.78264593E-02
  1.15940234E-01 -1.73867728E-01  2.49949584E+00 -2.99111496E-02  2.45248946E+00
 -9.94117503E-01 -2.22982565E-02
Number of symbols in /Mol/                 I                0
Int Atom Types                             I   N=           4
           0           0           0           0
Force Field                                I                0
Atom Types                                 C   N=           4
                                                
MM charges                                 R   N=           4
  0.00000000E+00  0.00000000E+00  0.00000000E+00  0.00000000E+00
Integer atomic weights                     I   N=           4
          19          12          16          19
Real atomic weights                        R   N=           4
  1.89984032E+01  1.20000000E+01  1.59949146E+01  1.89984032E+01
Atom fragment info                         I   N=           4
           0           0           0           0
Atom residue num                           I   N=           4
           0           0           0           0
Nuclear spins                              I   N=           4
           1           0           0           1
Nuclear ZEff                               R   N=           4
 -6.75000000E+00 -3.60000000E+00 -5.60000000E+00 -6.75000000E+00
Nuclear ZNuc                               R   N=           4
  9.00000000E+00  6.00000000E+00  8.00000000E+00  9.00000000E+00
Nuclear QMom                               R   N=           4
  0.00000000E+00  0.00000000E+00  0.00000000E+00  0.00000000E+00
Nuclear GFac                               R   N=           4
  2.62886700E+00  0.00000000E+00  0.00000000E+00  2.62886700E+00
MicOpt                                     I   N=           4
          -1          -1          -1          -1
Number of residues                         I                0
Number of secondary structures             I                0
SymInf integers                            I   N=          26
           1           1           1           1           1           0
           0           0           0           0           0           0
           0           0           0           0           0           0
           0           0           0           0           0           0
           0           0
RotTr to input orientation                 R   N=          12
 -9.97570776E-01 -6.90293453E-02  9.35392676E-03 -6.95119263E-02  9.95189042E-01
 -6.90424694E-02 -4.54296895E-03 -6.95249593E-02 -9.97569868E-01  1.51467454E-03
  3.48455458E-02 -3.20190470E-03
Number of contracted shells                I               16
Number of primitive shells                 I               44
Pure/Cartesian d shells                    I                1
Pure/Cartesian f shells                    I                0
Highest angular momentum                   I                2
Largest degree of contraction              I                6
Shell types                                I   N=          16
           0          -1          -1           2           0          -1
          -1           2           0          -1          -1           2
           0          -1          -1           2
Number of primitives per shell             I   N=          16
           6           3           1           1           6           3
           1           1           6           3           1           1
           6           3           1           1
Shell to atom map                          I   N=          16
           1           1           1           1           2           2
           2           2           3           3           3           3
           4           4           4           4
Primitive exponents                        R   N=          44
  7.00171309E+03  1.05136609E+03  2.39285690E+02  6.73974453E+01  2.15199573E+01
  7.40310130E+00  2.08479528E+01  4.80830834E+00  1.34406986E+00  3.58151393E-01
  8.00000000E-01  3.04752488E+03  4.57369518E+02  1.03948685E+02  2.92101553E+01
  9.28666296E+00  3.16392696E+00  7.86827235E+00  1.88128854E+00  5.44249258E-01
  1.68714478E-01  8.00000000E-01  5.48467166E+03  8.25234946E+02  1.88046958E+02
  5.29645000E+01  1.68975704E+01  5.79963534E+00  1.55396162E+01  3.59993359E+00
  1.01376175E+00  2.70005823E-01  8.00000000E-01  7.00171309E+03  1.05136609E+03
  2.39285690E+02  6.73974453E+01  2.15199573E+01  7.40310130E+00  2.08479528E+01
  4.80830834E+00  1.34406986E+00  3.58151393E-01  8.00000000E-01
Contraction coefficients                   R   N=          44
  1.81961690E-03  1.39160796E-02  6.84053245E-02  2.33185760E-01  4.71267439E-01
  3.56618546E-01 -1.08506975E-01 -1.46451658E-01  1.12868858E+00  1.00000000E+00
  1.00000000E+00  1.83473713E-03  1.40373228E-02  6.88426223E-02  2.32184443E-01
  4.67941348E-01  3.62311985E-01 -1.19332420E-01 -1.60854152E-01  1.14345644E+00
  1.00000000E+00  1.00000000E+00  1.83107443E-03  1.39501722E-02  6.84450781E-02
  2.32714336E-01  4.70192898E-01  3.58520853E-01 -1.10777550E-01 -1.48026263E-01
  1.13076702E+00  1.00000000E+00  1.00000000E+00  1.81961690E-03  1.39160796E-02
  6.84053245E-02  2.33185760E-01  4.71267439E-01  3.56618546E-01 -1.08506975E-01
 -1.46451658E-01  1.12868858E+00  1.00000000E+00  1.00000000E+00
P(S=P) Contraction coefficients            R   N=          44
  0.00000000E+00  0.00000000E+00  0.00000000E+00  0.00000000E+00  0.00000000E+00
  0.00000000E+00  7.16287242E-02  3.45912103E-01  7.22469956E-01  1.00000000E+00
  0.00000000E+00  0.00000000E+00  0.00000000E+00  0.00000000E+00  0.00000000E+00
  0.00000000E+00  0.00000000E+00  6.89990666E-02  3.16423961E-01  7.44308291E-01
  1.00000000E+00  0.00000000E+00  0.00000000E+00  0.00000000E+00  0.00000000E+00
  0.00000000E+00  0.00000000E+00  0.00000000E+00  7.08742682E-02  3.39752839E-01
  7.27158577E-01  1.00000000E+00  0.00000000E+00  0.00000000E+00  0.00000000E+00
  0.00000000E+00  0.00000000E+00  0.00000000E+00  0.00000000E+00  7.16287242E-02
  3.45912103E-01  7.22469956E-01  1.00000000E+00  0.00000000E+00
Coordinates of each shell                  R   N=          48
 -2.19253282E+00 -1.29287422E+00 -2.84075442E-02 -2.19253282E+00 -1.29287422E+00
 -2.84075442E-02 -2.19253282E+00 -1.29287422E+00 -2.84075442E-02 -2.19253282E+00
 -1.29287422E+00 -2.84075442E-02 -1.58111315E-01  9.78264593E-02  1.15940234E-01
 -1.58111315E-01  9.78264593E-02  1.15940234E-01 -1.58111315E-01  9.78264593E-02
  1.15940234E-01 -1.58111315E-01  9.78264593E-02  1.15940234E-01 -1.73867728E-01
  2.49949584E+00 -2.99111496E-02 -1.73867728E-01  2.49949584E+00 -2.99111496E-02
 -1.73867728E-01  2.49949584E+00 -2.99111496E-02 -1.73867728E-01  2.49949584E+00
 -2.99111496E-02  2.45248946E+00 -9.94117503E-01 -2.22982565E-02  2.45248946E+00
 -9.94117503E-01 -2.22982565E-02  2.45248946E+00 -9.94117503E-01 -2.22982565E-02
  2.45248946E+00 -9.94117503E-01 -2.22982565E-02
Num ILSW                                   I              100
ILSW                                       I   N=         100
           0           1           0           0           2           0
           0           0           0           0         402          -1
           5           0           0           0           0           0
           0           0           1           0           0           0
           1           0           0           0           0           0
           0           0      100000           0          -1           0
           0           0           0           0           0           0
           0           0           0           1           0           0
           0 -2000000000           1           0           0           0
           0           0           4          52           0           0
           0           0           5           0           0           0
           0           0           0           0           0           1
           0           0           0           0           0           0
           0           0           0           0           0           0
           0           0           0           0           0           0
           0           0           0           0           0           0
           0           0           0           0
Num RLSW                                   I               52
RLSW                                       R   N=          52
  8.00000000E-01  7.20000000E-01  1.00000000E+00  8.10000000E-01  2.00000000E-01
  0.00000000E+00  0.00000000E+00  1.00000000E+00  0.00000000E+00  0.00000000E+00
  0.00000000E+00  0.00000000E+00  1.00000000E+00  0.00000000E+00  0.00000000E+00
  0.00000000E+00  0.00000000E+00  1.00000000E+00  0.00000000E+00  0.00000000E+00
  0.00000000E+00  0.00000000E+00  1.00000000E+00  0.00000000E+00  0.00000000E+00
  0.00000000E+00  0.00000000E+00  1.00000000E+00  0.00000000E+00  0.00000000E+00
  0.00000000E+00  0.00000000E+00  1.00000000E+00  0.00000000E+00  0.00000000E+00
  0.00000000E+00  0.00000000E+00  0.00000000E+00  1.00000000E+00  1.00000000E+00
  0.00000000E+00  1.00000000E+00  0.00000000E+00  0.00000000E+00  0.00000000E+00
  0.00000000E+00  0.00000000E+00  0.00000000E+00  0.00000000E+00  0.00000000E+00
  0.00000000E+00  0.00000000E+00
MxBond                                     I                3
NBond                                      I   N=           4
           1           3           1           1
IBond                                      I   N=          12
           2           0           0           1           3           4
           2           0           0           2           0           0
RBond                                      R   N=          12
  1.00000000E+00  0.00000000E+00  0.00000000E+00  1.00000000E+00  2.00000000E+00
  1.00000000E+00  2.00000000E+00  0.00000000E+00  0.00000000E+00  1.00000000E+00
  0.00000000E+00  0.00000000E+00
Virial Ratio                               R      2.009261768214906E+00
SCF Energy                                 R     -3.129623330200374E+02
Total Energy                               R     -3.129623330200374E+02
RMS Density                                R      9.943097877208530E-09
Job Status                                 I                1
Nuclear derivative order                   I                0
External E-field                           R   N=          35
  0.00000000E+00  0.00000000E+00  0.00000000E+00  0.00000000E+00  0.00000000E+00
  0.00000000E+00  0.00000000E+00  0.00000000E+00  0.00000000E+00  0.00000000E+00
  0.00000000E+00  0.00000000E+00  0.00000000E+00  0.00000000E+00  0.00000000E+00
  0.00000000E+00  0.00000000E+00  0.00000000E+00  0.00000000E+00  0.00000000E+00
  0.00000000E+00  0.00000000E+00  0.00000000E+00  0.00000000E+00  0.00000000E+00
  0.00000000E+00  0.00000000E+00  0.00000000E+00  0.00000000E+00  0.00000000E+00
  0.00000000E+00  0.00000000E+00  0.00000000E+00  0.00000000E+00  0.00000000E+00
IOpCl                                      I                0
IROHF                                      I                0
Alpha Orbital Energies                     R   N=          60
 -2.48211720E+01 -2.47487646E+01 -1.92072847E+01 -1.04729492E+01 -1.33969278E+00
 -1.21360199E+00 -1.05977558E+00 -7.00763123E-01 -5.99441398E-01 -5.67011703E-01
 -5.43413882E-01 -4.65839175E-01 -4.57236153E-01 -4.39577607E-01 -3.78606968E-01
 -3.36479560E-01 -7.54528609E-02 -9.18332485E-03  1.97393287E-01  2.85585739E-01
  4.68833572E-01  4.76063025E-01  4.90030991E-01  5.46090741E-01  8.39364953E-01
  9.34389334E-01  9.39419907E-01  1.04023914E+00  1.07940122E+00  1.11785403E+00
  1.22015351E+00  1.25913232E+00  1.26147027E+00  1.33291133E+00  1.35548384E+00
  1.38005056E+00  1.53642311E+00  1.60868525E+00  1.73144124E+00  1.75052065E+00
  1.77135587E+00  1.78840963E+00  1.81771809E+00  1.82049003E+00  1.84361110E+00
  1.90386783E+00  1.93353453E+00  1.98427258E+00  2.09967846E+00  2.39226691E+00
  2.55151716E+00  2.56865581E+00  2.66947645E+00  2.83960138E+00  2.97134187E+00
  3.02083909E+00  3.68920578E+00  4.05109462E+00  4.22444743E+00  4.59233982E+00
Alpha MO coefficients                      R   N=        3600
  9.92972357E-01  1.94851660E-02  7.22801988E-04  4.25663926E-04  5.90324626E-05
  1.57285144E-02 -3.36119722E-04 -2.03583320E-04 -1.84349986E-05 -8.41677999E-03
 -8.22939572E-03 -8.07781030E-03 -2.68695298E-04 -2.76138074E-05 -1.91189320E-05
  1.62924489E-05  4.60428764E-04 -5.95772678E-04 -3.58531618E-04 -5.15909435E-05
 -5.48998151E-04  8.11788476E-04  5.86839202E-04  2.35259243E-05  2.77217427E-04
  1.64727488E-04 -4.63591964E-05  1.72656524E-04  1.65726438E-05  8.52829557E-06
  2.22372255E-05  1.52628337E-04  1.66774232E-05 -1.81426769E-06  1.52909252E-06
 -5.70006925E-04 -1.25557320E-04  2.33122860E-04 -2.10503258E-05  5.01361457E-05
 -5.15220068E-05  1.07456942E-04 -3.83608020E-05 -6.53232154E-06  5.72191080E-06
  2.57199300E-05  2.23236214E-04 -3.72100413E-05  2.55426953E-05  2.90457186E-06
 -6.90007056E-04  1.13149032E-04 -1.45482762E-04 -1.39781306E-05  1.01318522E-04
  1.57286563E-04  1.87044930E-04  1.82218952E-05  1.83736715E-06 -6.34982603E-06
  6.36262729E-05  3.06152982E-04  2.67855412E-05  3.51312090E-05  3.08105837E-06
 -9.61954288E-04 -1.52381637E-04 -2.92672515E-04 -2.58723995E-05  1.62212809E-04
  1.17829133E-04  2.72544500E-04 -9.67857823E-05 -8.25103115E-06 -2.16442607E-05
  2.47055400E-05 -1.60063695E-04  2.75574062E-04 -1.33425589E-04 -3.27864911E-05
 -2.62402800E-04 -7.29156986E-04  3.57891986E-04  3.12018537E-06  7.60628471E-04
  2.67319518E-04  9.55849464E-05 -2.30738823E-04 -2.53887676E-05  9.18578713E-06
  3.16768997E-05  1.97042211E-04  2.96412680E-07 -2.27388910E-05  1.62782380E-06
 -6.78502731E-04  1.05795027E-04  3.09329518E-04 -2.09248350E-05  5.56862429E-05
 -2.22562674E-05  1.64847517E-04 -5.14298118E-06  1.15961408E-05  1.19669602E-05
  9.93032338E-01  1.95696769E-02 -5.94471309E-04  1.65499454E-04  3.81249885E-05
  1.51204481E-02  1.79044615E-04 -4.28979781E-05 -6.12468187E-06 -8.24010280E-03
 -7.98909023E-03 -7.94982755E-03  1.42834077E-04  1.79705945E-05 -7.92910423E-06
  1.37557166E-05  8.84980391E-05  2.85634102E-05 -3.38239202E-05  6.69637865E-06
 -2.20572286E-04 -7.99350705E-05  1.86713940E-04 -2.48609947E-05  1.10369927E-04
 -4.22053424E-05  7.59525580E-05 -1.23116848E-05  4.18774537E-06  6.71137521E-06
  3.16242395E-05  6.41080058E-04  3.10617545E-05  1.49670096E-04 -9.44765525E-06
 -2.70583961E-03 -1.10807819E-05 -2.00014761E-03  1.29256970E-04  1.74478384E-05
 -5.19927792E-04  3.68943185E-05 -2.15984507E-05 -1.82217512E-06  3.94514634E-05
  9.92858423E-01  2.57987569E-02 -2.11222045E-05 -1.07340908E-03  7.88998986E-05
  1.18928353E-02  3.07759531E-05 -1.04874355E-03  5.70979568E-05 -7.83969029E-03
 -7.54758504E-03 -7.85806062E-03 -1.05003720E-05  9.18286293E-07 -1.91375658E-05
  9.96644237E-06  7.58408957E-05 -1.84095082E-05 -2.00298042E-05  3.51137892E-06
 -1.19053573E-04  8.53787041E-05  1.34029656E-04 -1.74603744E-05  2.07476816E-05
 -1.91168823E-05  8.68105831E-05  2.79477511E-05  5.13482082E-06  5.64688082E-06
  4.98409742E-05  8.28322018E-04  9.90323273E-05  6.95463180E-05  1.27953652E-05
 -2.92814975E-03 -1.92763038E-03 -1.30580792E-03 -1.63568557E-04 -3.22715307E-04
  3.07853064E-04  7.35719790E-04 -7.36732398E-04 -1.00234861E-04 -6.35014169E-05
  9.93070311E-01  4.55825816E-02 -9.35931882E-04 -1.50883642E-03 -1.06420590E-04
 -4.18998925E-03 -8.59434981E-04 -1.79070605E-04 -3.39859265E-05 -7.83241877E-03
 -8.13992122E-03 -9.28398043E-03  5.91427024E-04  5.37629929E-05  3.35859629E-05
 -1.63644463E-04 -1.26325008E-04 -4.31970051E-05 -2.53278519E-05 -3.25989943E-06
  4.48347197E-04  2.09050412E-04  5.58431237E-04 -3.66488716E-05 -1.24496506E-04
 -1.33118215E-04 -5.20712264E-05  2.50823833E-05 -3.18952899E-06  1.98952783E-05
 -6.16296191E-05 -7.89383510E-05 -1.07067783E-04  1.53187773E-05  5.23454369E-06
  8.63513512E-04  7.43370006E-04 -1.67322950E-04 -3.15544812E-05 -7.86758545E-04
 -9.04592919E-05  4.14925100E-05  3.41062596E-04  5.45242104E-05 -1.97684802E-05
 -2.15200393E-01  4.89565950E-01  9.41891138E-02  6.13881438E-02  6.94730053E-03
  4.29471210E-01  4.47502057E-02  2.78619455E-02  3.21911549E-03  2.36182600E-02
  1.37532741E-02  9.51311339E-03  1.08230155E-02  1.29781675E-03  8.45664566E-04
 -7.67733560E-02  1.48901759E-01 -9.52609558E-02 -6.61314008E-02 -7.68040054E-03
  2.68567072E-02  7.88739693E-03  9.76085742E-05  1.87704733E-03  8.42318803E-03
 -3.30097308E-03 -1.58740152E-02  2.14565782E-02  1.95056919E-03  1.39647220E-03
 -1.68561593E-02  3.73059251E-02 -5.37764327E-03 -2.29508800E-02  6.82401301E-04
  3.12780128E-02 -5.59797672E-03 -1.32203974E-02 -2.01327020E-04 -1.28667050E-03
  6.29440576E-03 -3.91754656E-04  2.78835518E-03 -2.47031495E-04 -1.25383746E-04
 -2.52184094E-02  5.55762900E-02 -1.54027812E-02  3.37345671E-03  5.22050020E-04
  4.97229395E-02 -1.48524518E-02  1.32853228E-03 -1.30400455E-05  8.47334471E-03
  5.68227774E-05  1.04116049E-07 -2.21228823E-03 -3.09538001E-04  5.04281378E-05
  4.03976732E-02 -9.23380709E-02 -3.27354259E-03 -7.71422585E-03 -1.18638986E-03
 -8.82013542E-02  4.13726108E-03 -2.08787090E-03 -8.70763118E-04  1.03293331E-03
 -2.46609420E-03 -2.29054321E-03  5.44080605E-04 -6.40721052E-05 -1.08003740E-04
 -4.31990026E-02  8.82426953E-02  9.64026488E-02  1.66841735E-04 -3.39656730E-03
  2.52503975E-02 -2.44573317E-03 -6.41821824E-03  9.42504861E-04  2.66613178E-03
 -3.04652480E-03 -6.87771413E-03 -1.45702517E-02 -1.43083898E-03 -1.93836960E-04
 -2.44727877E-02  5.30892250E-02  8.91272647E-03 -2.64659189E-02  1.15017418E-03
  4.87764976E-02  6.72208067E-03 -1.18461914E-02  2.54416031E-04 -1.27284136E-03
  3.92401596E-03 -1.08285416E-03 -2.76225489E-03  1.51172124E-04 -2.80490596E-04
 -2.22429866E-01  4.97292014E-01 -6.53614625E-02  2.49062971E-02  3.66543603E-03
  4.82074593E-01 -4.30922564E-02  1.56641485E-02  2.42837362E-03  2.35530509E-02
  7.29504176E-03  6.18704608E-03 -7.66559876E-03 -1.25139558E-03  4.75451224E-04
  3.51479486E-02 -8.03770646E-02  2.01651018E-03  2.66392919E-02 -8.98505217E-04
 -8.32709220E-02  5.56376413E-03  2.15955979E-02 -6.25136629E-04 -5.41719907E-04
  2.84422509E-03 -1.70949901E-03  5.11093150E-03 -9.75834436E-05  2.93387214E-04
 -8.73523478E-02  1.90781049E-01 -2.81288556E-03  2.16691231E-01 -9.47650014E-03
  3.39982107E-02  8.76471226E-05 -1.11470651E-02  2.15700764E-03 -2.51135387E-02
  2.25384934E-02 -1.33574381E-02 -3.45631932E-03 -9.88553464E-05 -3.37852409E-03
 -1.95661908E-01  4.35247941E-01 -1.37254140E-03 -1.51763208E-01  9.31296929E-03
  4.04467115E-01 -1.92502007E-03 -5.75328087E-02  3.25876135E-03 -9.41441051E-03
  1.08448965E-02 -5.37581943E-03  1.63527753E-04 -3.63138178E-06 -1.42302847E-03
  4.84997364E-02 -1.08530257E-01 -4.88572724E-03  1.60176679E-02 -3.70619355E-04
 -1.17637811E-01 -3.57105797E-03  1.21203819E-02 -5.16039995E-04  5.42790350E-04
  2.27395989E-04 -1.22912962E-03 -2.95291191E-03  2.38193410E-05  1.21297519E-04
  8.34115642E-02 -1.74109763E-01  4.06766326E-01  2.28804455E-01  3.02464257E-02
 -2.99691836E-01  2.29149997E-01  1.25178908E-01  1.68380503E-02  2.33108103E-02
  5.05428084E-03 -6.59262982E-04  1.43422899E-02  2.15789247E-03  1.12736146E-03
 -1.20451732E-01  2.93248111E-01 -1.08650206E-01 -1.85036851E-01 -4.02874956E-03
  1.63294297E-01  8.35605795E-03 -1.91165885E-02  3.61841931E-03  4.01833198E-03
 -1.21572898E-02 -1.35366329E-02  1.39016891E-02  1.05976704E-03  1.73337299E-03
  5.60031762E-02 -1.24698111E-01 -1.90603722E-02 -5.18613531E-02  7.89956998E-04
 -1.64013343E-01 -1.47099281E-02 -2.89422639E-02 -2.48927319E-04  8.86317366E-04
  1.10393857E-02  1.48892021E-03  3.68312575E-03 -3.11327479E-04 -1.24209081E-04
  3.62777232E-02 -7.37201363E-02 -1.36889125E-01  1.84442640E-02  6.36328404E-03
 -1.31699666E-01 -8.52137553E-02  6.27046046E-03  3.18076858E-03  1.69205476E-02
  4.04847259E-04  1.36038103E-03 -2.66151040E-03 -7.29848550E-04  3.65302363E-05
  1.70598855E-02 -2.92069889E-02  3.41633366E-02  3.47200033E-01  2.60984544E-02
 -7.33901234E-02  6.22556837E-03  2.09450094E-01  1.63019002E-02 -6.60328208E-03
  1.54516016E-02  1.58427448E-03  9.39640085E-03  7.23961057E-04  1.65552260E-03
  4.61618609E-02 -1.10839868E-01 -3.30931457E-01  5.90757720E-02  1.22353185E-03
 -9.30580852E-02 -5.93679998E-02  5.30022503E-02 -1.49996562E-04  8.10099214E-03
 -2.62373414E-03  8.73566337E-04  1.30602967E-02  2.22697867E-03 -5.13721427E-04
 -1.56819438E-02  3.89630689E-02 -1.21248150E-01  3.53174679E-02 -9.78804553E-04
  2.85078353E-02 -7.03561143E-02  2.48003515E-02 -1.71283754E-03  1.90935204E-03
 -2.68294209E-03  6.43784230E-04  1.28314971E-02 -7.87899469E-04  1.01375235E-04
 -5.79109364E-02  1.10416004E-01  3.56801786E-01 -1.61474289E-01 -2.11953667E-02
  2.31593201E-01  2.12434653E-01 -9.91730955E-02 -1.27763225E-02 -2.40043858E-02
 -8.61551153E-03 -4.60980219E-03  9.20385665E-03  1.45324923E-03 -6.82925597E-04
 -3.73614859E-04 -3.99990709E-05 -3.35206153E-02 -2.94500945E-02  5.49459786E-01
  2.17699667E-03 -2.05947307E-02 -1.73230910E-02  3.52346059E-01 -2.37846865E-03
 -1.30378704E-03  2.80027154E-03 -1.54896969E-03  2.37547810E-02  1.46193855E-02
 -5.14297465E-03  1.25550367E-02  2.77392918E-03 -1.50777686E-03  2.78873256E-01
  5.70147589E-03 -5.74656064E-03 -9.00070881E-03  1.37404088E-01  5.14576768E-04
  7.72063331E-04 -3.03487358E-03  7.20621355E-04 -1.62647469E-02 -9.28968118E-03
 -1.93320608E-03  1.42072702E-03  2.84756146E-03  1.21355833E-02  1.25802686E-01
  1.96778355E-02  4.00001826E-03  6.67671322E-04  5.75957814E-02 -1.07000158E-03
 -2.12711019E-03 -4.27541453E-06 -4.62427680E-04 -8.53290958E-04 -1.11801526E-02
 -6.23321560E-05 -2.31606622E-03  4.51804436E-03 -4.09438030E-04  1.33132331E-01
  6.46187422E-03  1.45171749E-03  2.54508901E-03  8.02609913E-02 -1.54097463E-03
 -8.51179899E-04 -5.92006919E-04 -3.09677761E-04 -7.13618216E-03  1.73061885E-03
  5.65651463E-03 -5.66153345E-03  3.46468285E-01 -3.08008122E-01  1.06307669E-02
 -3.56811760E-02  2.11361656E-01 -2.00244317E-01  6.12330293E-03  1.82242947E-02
 -1.15806868E-02  1.13978246E-03 -7.23175093E-03  1.05050901E-03 -9.51380160E-04
  5.42622868E-02 -1.43438366E-01 -6.09938658E-02 -2.09744433E-01 -3.50499905E-03
 -1.22500788E-01  1.72172251E-02 -1.06383269E-01 -2.72084678E-03 -9.19300446E-03
  2.10291724E-02  2.85314480E-03  1.52259969E-02  1.04499870E-04  1.48489334E-03
 -9.02029213E-02  1.87106860E-01 -9.51627428E-03  2.85496811E-01 -2.13154473E-02
  3.96115717E-01 -8.63868665E-03  1.15679509E-01 -7.41587048E-03 -7.73893230E-03
 -2.54053840E-02 -3.30035799E-03  2.54292720E-03 -2.91040597E-04  1.87447495E-03
 -1.07038804E-02  2.48653838E-02  7.67197711E-02 -1.66138146E-01 -1.23176099E-02
  2.48599207E-02  5.49316497E-02 -1.07283142E-01 -9.25494830E-03 -2.17859253E-03
 -1.12722056E-03  8.60357531E-04  8.58588411E-03  7.90336401E-04 -6.00784954E-04
  7.79085107E-04  7.77829477E-03 -2.14415642E-01  3.37200054E-01  2.42135439E-03
 -3.08447857E-02 -1.50158533E-01  2.16168604E-01  3.81771858E-04 -4.54693412E-03
  1.15079145E-02  3.81799116E-03  2.15738438E-03 -5.38385335E-04  5.10136703E-04
  3.22855470E-02 -9.14817437E-02  6.08654662E-02 -2.30880643E-01 -6.37879138E-04
 -2.01498686E-02 -3.21005488E-02 -1.20149368E-02 -2.09840592E-03  3.01131090E-02
 -1.59046310E-02  2.33806764E-03 -1.58057633E-02  5.06799869E-04  1.79766954E-04
 -5.64547669E-02  1.20636219E-01 -1.90900938E-02  3.57822372E-01 -3.29682995E-02
  2.24054313E-01 -1.11170691E-02  1.92717963E-01 -1.97617594E-02  1.36561802E-03
 -2.12897066E-02  1.06365406E-03 -1.30939649E-03  2.82788943E-04  2.44115970E-03
  9.82425592E-03 -2.14192791E-02 -3.32748635E-01 -7.10674059E-02  2.80428100E-02
 -1.86466778E-02 -2.27680930E-01 -4.63720310E-02  2.03711124E-02  1.24872765E-02
 -5.39335947E-03 -1.93115917E-03  1.17064972E-03 -1.53998503E-03 -9.88198608E-05
 -6.43062016E-04 -2.69523177E-03  1.74952449E-02 -1.01179311E-03 -2.89064990E-01
  1.34430732E-02  1.34763940E-02  3.91800444E-03 -2.10358379E-01 -1.04917123E-03
 -1.09958848E-03 -2.98757815E-03  6.44654167E-04 -7.24695623E-03 -5.25242550E-03
 -3.77731425E-03  8.88514784E-03 -2.81901065E-03  5.29537495E-03  1.45955382E-01
  4.84838715E-03  1.28216694E-02 -5.37258759E-03  9.60068608E-02 -1.90016501E-03
  1.02010614E-03 -1.08142555E-03 -2.20828264E-03  2.43993187E-02  6.53007895E-03
  3.38471202E-04 -2.27635377E-03 -1.22257915E-02  3.32570235E-03  1.41180968E-01
  6.25011813E-03 -1.36623909E-02 -1.16828356E-03  8.03556711E-02 -8.57157278E-04
 -8.71095030E-04  3.94568381E-04  1.53637603E-03  2.13174695E-03 -9.69208614E-03
  3.79105765E-05  1.31955452E-03  2.96251319E-02 -4.25768863E-02  5.60434990E-01
 -5.64216288E-03  2.09981984E-02 -3.03685281E-02  3.84882740E-01 -6.65592879E-04
 -1.81383244E-04  2.50796382E-03  1.62064764E-03 -1.85883415E-02  6.68394762E-03
 -7.55242525E-03  1.64001462E-03  9.29121971E-02  1.03837480E-01 -1.53296771E-03
  9.58806208E-02  7.38135376E-02  6.92406426E-02  1.03175058E-03 -6.07137804E-03
 -9.89676030E-03 -6.77902778E-03  1.74880685E-03  1.25333549E-04 -2.92608238E-04
  2.29058136E-02 -5.96153694E-02  1.97834291E-02 -1.03599224E-01 -3.09937768E-04
 -2.40450330E-02  6.55131346E-02  1.20529928E-01  1.00947328E-03  2.37959791E-02
 -1.41589318E-02  4.94392182E-04  2.33626039E-02  1.19204978E-03 -4.75422258E-04
 -1.94419084E-02  5.18281462E-02  1.17799680E-01  1.99406324E-01 -1.92153355E-02
  7.23798110E-03  7.47306755E-02  1.34375271E-01 -1.64924968E-02  7.88121536E-03
 -8.56704836E-03  3.91994999E-03 -6.15012346E-03  3.57112132E-04  1.68477518E-03
  9.41690885E-06  6.36255757E-03  1.96739529E-01  5.69398508E-01  3.95370292E-02
 -1.27165913E-02  1.34677335E-01  3.77071040E-01  2.70953541E-02 -5.97172338E-03
  1.02702610E-02  3.22577663E-03 -1.12532499E-02 -7.99835711E-04  1.11680040E-03
 -3.83619401E-04  7.18111543E-04  7.59115523E-03  1.76003558E-02 -2.05440650E-01
  2.99453464E-03  7.58952048E-03  8.89014276E-03 -1.48658744E-01  3.24096376E-04
 -3.65295351E-04 -3.62477915E-04 -1.18685447E-04 -2.47429687E-03  1.36093651E-03
 -3.39799023E-03  5.09881302E-03 -2.81101956E-04 -7.39812967E-03  2.51266394E-01
  3.19714751E-02 -1.32213376E-03  2.03168764E-02  9.26674236E-02  1.40483951E-05
  7.17682814E-04 -1.34387012E-03  2.93743975E-04 -3.65174341E-03  3.57690792E-02
 -3.91257905E-04  3.28934190E-03  3.43960297E-03  5.90236202E-02  5.02032554E-01
 -1.46753142E-02  3.00637356E-03  4.40149318E-02  3.41327730E-01  1.39812028E-03
 -3.78174211E-03  4.61489158E-03 -3.30888135E-04 -9.57287624E-04 -3.00945792E-02
 -2.93215068E-04  3.50204684E-04 -1.27721068E-02  1.93377981E-02 -3.10701588E-01
  2.28044632E-03 -1.03722561E-02  1.08770324E-02 -2.21851165E-01  6.16537764E-04
 -3.23049768E-04 -7.30806689E-04  9.34617214E-05  5.29779958E-03  7.24165678E-04
 -1.00687503E-02  1.79905114E-02  2.49754635E-02  1.50821847E-01  4.26048178E-03
  8.13090709E-02  2.58190465E-02  1.15881026E-01  4.69094656E-03 -4.71626024E-03
 -1.81460497E-03 -2.03147929E-03  4.18088156E-03 -2.25080623E-04  3.67180025E-04
 -2.63911579E-03  9.62445184E-03  7.59875882E-02  7.03053172E-03 -1.95028102E-03
 -2.68761278E-02  1.09009808E-01 -8.37345928E-03  9.67981583E-04 -5.35436647E-03
  2.17007418E-03 -3.23881993E-04  4.00165924E-02 -5.28667326E-04  1.65544954E-04
 -1.37413744E-03  4.96502807E-03  6.13576278E-01 -1.72425047E-02  2.77834503E-03
  1.01328467E-02  4.00916610E-01 -1.43474605E-02  2.10179656E-03 -1.66912404E-03
  2.23095559E-03  8.73766620E-04 -2.60828800E-02  1.91818400E-03 -1.30864850E-04
  9.05822837E-03 -1.85958461E-02  9.79381910E-02 -2.28646113E-01 -3.21691711E-03
 -6.42413937E-02  8.56847619E-02 -1.63404551E-01 -4.26068607E-03 -3.46168326E-03
  2.93200900E-03  1.19615300E-03  5.42717925E-03  3.71189645E-04 -4.42799296E-04
  1.95271324E-02 -3.99382213E-02 -1.04478224E-01 -2.76417012E-02 -2.16611152E-01
 -1.50547684E-01 -1.07173587E-01 -3.92281241E-02 -1.80528481E-01  3.12392676E-03
 -1.67979845E-04  7.46127192E-03 -2.29256022E-03  1.33722547E-02  6.40021666E-03
 -6.43135092E-02  1.25208554E-01  5.45997121E-02 -1.06757940E-01  5.62048688E-01
  4.73237146E-01  5.54761631E-03 -4.36238034E-02  3.83214411E-01 -1.61991776E-02
 -1.09345424E-02  1.18785118E-02 -2.64554093E-03  7.37976480E-04 -2.22966947E-02
  1.17593999E-02 -2.39314022E-02 -1.83647916E-02  5.49322259E-02 -3.84369266E-01
 -1.05851048E-01 -1.55066119E-02  7.37200591E-02 -3.54471248E-01  2.03198191E-03
 -2.58439425E-03  6.39545746E-03 -7.45948582E-04  6.66937508E-04 -3.34799084E-03
  1.94744335E-02 -4.29778706E-02  1.43022778E-01 -3.18433916E-02 -1.73593507E-01