CF2O Time step 25                                                       
SP        RB3LYP                                                      6-31G(d)            
Number of atoms                            I                4
Info1-9                                    I   N=           9
          13          13           0           0           0         110
           1          18        -502
Full Title                                 C   N=           2
CF2O Time step 25       
Route                                      C   N=           4
# B3LYP/6-31G(d) pop=full density=current       
Charge                                     I                0
Multiplicity                               I                1
Number of electrons                        I               32
Number of alpha electrons                  I               16
Number of beta electrons                   I               16
Number of basis functions                  I               60
Number of independent functions            I               60
Number of point charges in /Mol/           I                0
Number of translation vectors              I                0
Atomic numbers                             I   N=           4
           9           6           8           9
Nuclear charges                            R   N=           4
  9.00000000E+00  6.00000000E+00  8.00000000E+00  9.00000000E+00
Current cartesian coordinates              R   N=          12
 -2.18860376E+00 -1.27414349E+00 -2.37248794E-02 -1.35573830E-01  9.81987500E-02
  9.81954394E-02 -1.55249441E-01  2.49343876E+00 -2.52938947E-02  2.41698582E+00
 -1.00771235E+00 -1.92552850E-02
Number of symbols in /Mol/                 I                0
Int Atom Types                             I   N=           4
           0           0           0           0
Force Field                                I                0
Atom Types                                 C   N=           4
                                                
MM charges                                 R   N=           4
  0.00000000E+00  0.00000000E+00  0.00000000E+00  0.00000000E+00
Integer atomic weights                     I   N=           4
          19          12          16          19
Real atomic weights                        R   N=           4
  1.89984032E+01  1.20000000E+01  1.59949146E+01  1.89984032E+01
Atom fragment info                         I   N=           4
           0           0           0           0
Atom residue num                           I   N=           4
           0           0           0           0
Nuclear spins                              I   N=           4
           1           0           0           1
Nuclear ZEff                               R   N=           4
 -6.75000000E+00 -3.60000000E+00 -5.60000000E+00 -6.75000000E+00
Nuclear ZNuc                               R   N=           4
  9.00000000E+00  6.00000000E+00  8.00000000E+00  9.00000000E+00
Nuclear QMom                               R   N=           4
  0.00000000E+00  0.00000000E+00  0.00000000E+00  0.00000000E+00
Nuclear GFac                               R   N=           4
  2.62886700E+00  0.00000000E+00  0.00000000E+00  2.62886700E+00
MicOpt                                     I   N=           4
          -1          -1          -1          -1
Number of residues                         I                0
Number of secondary structures             I                0
SymInf integers                            I   N=          26
           1           1           1           1           1           0
           0           0           0           0           0           0
           0           0           0           0           0           0
           0           0           0           0           0           0
           0           0
RotTr to input orientation                 R   N=          12
 -9.98079856E-01 -6.13555406E-02  8.49113339E-03 -6.17969897E-02  9.95689683E-01
 -6.91605949E-02 -4.21114822E-03 -6.95525231E-02 -9.97569402E-01  1.31194236E-03
  3.47327528E-02 -3.07730089E-03
Number of contracted shells                I               16
Number of primitive shells                 I               44
Pure/Cartesian d shells                    I                1
Pure/Cartesian f shells                    I                0
Highest angular momentum                   I                2
Largest degree of contraction              I                6
Shell types                                I   N=          16
           0          -1          -1           2           0          -1
          -1           2           0          -1          -1           2
           0          -1          -1           2
Number of primitives per shell             I   N=          16
           6           3           1           1           6           3
           1           1           6           3           1           1
           6           3           1           1
Shell to atom map                          I   N=          16
           1           1           1           1           2           2
           2           2           3           3           3           3
           4           4           4           4
Primitive exponents                        R   N=          44
  7.00171309E+03  1.05136609E+03  2.39285690E+02  6.73974453E+01  2.15199573E+01
  7.40310130E+00  2.08479528E+01  4.80830834E+00  1.34406986E+00  3.58151393E-01
  8.00000000E-01  3.04752488E+03  4.57369518E+02  1.03948685E+02  2.92101553E+01
  9.28666296E+00  3.16392696E+00  7.86827235E+00  1.88128854E+00  5.44249258E-01
  1.68714478E-01  8.00000000E-01  5.48467166E+03  8.25234946E+02  1.88046958E+02
  5.29645000E+01  1.68975704E+01  5.79963534E+00  1.55396162E+01  3.59993359E+00
  1.01376175E+00  2.70005823E-01  8.00000000E-01  7.00171309E+03  1.05136609E+03
  2.39285690E+02  6.73974453E+01  2.15199573E+01  7.40310130E+00  2.08479528E+01
  4.80830834E+00  1.34406986E+00  3.58151393E-01  8.00000000E-01
Contraction coefficients                   R   N=          44
  1.81961690E-03  1.39160796E-02  6.84053245E-02  2.33185760E-01  4.71267439E-01
  3.56618546E-01 -1.08506975E-01 -1.46451658E-01  1.12868858E+00  1.00000000E+00
  1.00000000E+00  1.83473713E-03  1.40373228E-02  6.88426223E-02  2.32184443E-01
  4.67941348E-01  3.62311985E-01 -1.19332420E-01 -1.60854152E-01  1.14345644E+00
  1.00000000E+00  1.00000000E+00  1.83107443E-03  1.39501722E-02  6.84450781E-02
  2.32714336E-01  4.70192898E-01  3.58520853E-01 -1.10777550E-01 -1.48026263E-01
  1.13076702E+00  1.00000000E+00  1.00000000E+00  1.81961690E-03  1.39160796E-02
  6.84053245E-02  2.33185760E-01  4.71267439E-01  3.56618546E-01 -1.08506975E-01
 -1.46451658E-01  1.12868858E+00  1.00000000E+00  1.00000000E+00
P(S=P) Contraction coefficients            R   N=          44
  0.00000000E+00  0.00000000E+00  0.00000000E+00  0.00000000E+00  0.00000000E+00
  0.00000000E+00  7.16287242E-02  3.45912103E-01  7.22469956E-01  1.00000000E+00
  0.00000000E+00  0.00000000E+00  0.00000000E+00  0.00000000E+00  0.00000000E+00
  0.00000000E+00  0.00000000E+00  6.89990666E-02  3.16423961E-01  7.44308291E-01
  1.00000000E+00  0.00000000E+00  0.00000000E+00  0.00000000E+00  0.00000000E+00
  0.00000000E+00  0.00000000E+00  0.00000000E+00  7.08742682E-02  3.39752839E-01
  7.27158577E-01  1.00000000E+00  0.00000000E+00  0.00000000E+00  0.00000000E+00
  0.00000000E+00  0.00000000E+00  0.00000000E+00  0.00000000E+00  7.16287242E-02
  3.45912103E-01  7.22469956E-01  1.00000000E+00  0.00000000E+00
Coordinates of each shell                  R   N=          48
 -2.18860376E+00 -1.27414349E+00 -2.37248794E-02 -2.18860376E+00 -1.27414349E+00
 -2.37248794E-02 -2.18860376E+00 -1.27414349E+00 -2.37248794E-02 -2.18860376E+00
 -1.27414349E+00 -2.37248794E-02 -1.35573830E-01  9.81987500E-02  9.81954394E-02
 -1.35573830E-01  9.81987500E-02  9.81954394E-02 -1.35573830E-01  9.81987500E-02
  9.81954394E-02 -1.35573830E-01  9.81987500E-02  9.81954394E-02 -1.55249441E-01
  2.49343876E+00 -2.52938947E-02 -1.55249441E-01  2.49343876E+00 -2.52938947E-02
 -1.55249441E-01  2.49343876E+00 -2.52938947E-02 -1.55249441E-01  2.49343876E+00
 -2.52938947E-02  2.41698582E+00 -1.00771235E+00 -1.92552850E-02  2.41698582E+00
 -1.00771235E+00 -1.92552850E-02  2.41698582E+00 -1.00771235E+00 -1.92552850E-02
  2.41698582E+00 -1.00771235E+00 -1.92552850E-02
Num ILSW                                   I              100
ILSW                                       I   N=         100
           0           1           0           0           2           0
           0           0           0           0         402          -1
           5           0           0           0           0           0
           0           0           1           0           0           0
           1           0           0           0           0           0
           0           0      100000           0          -1           0
           0           0           0           0           0           0
           0           0           0           1           0           0
           0 -2000000000           1           0           0           0
           0           0           4          52           0           0
           0           0           5           0           0           0
           0           0           0           0           0           1
           0           0           0           0           0           0
           0           0           0           0           0           0
           0           0           0           0           0           0
           0           0           0           0           0           0
           0           0           0           0
Num RLSW                                   I               52
RLSW                                       R   N=          52
  8.00000000E-01  7.20000000E-01  1.00000000E+00  8.10000000E-01  2.00000000E-01
  0.00000000E+00  0.00000000E+00  1.00000000E+00  0.00000000E+00  0.00000000E+00
  0.00000000E+00  0.00000000E+00  1.00000000E+00  0.00000000E+00  0.00000000E+00
  0.00000000E+00  0.00000000E+00  1.00000000E+00  0.00000000E+00  0.00000000E+00
  0.00000000E+00  0.00000000E+00  1.00000000E+00  0.00000000E+00  0.00000000E+00
  0.00000000E+00  0.00000000E+00  1.00000000E+00  0.00000000E+00  0.00000000E+00
  0.00000000E+00  0.00000000E+00  1.00000000E+00  0.00000000E+00  0.00000000E+00
  0.00000000E+00  0.00000000E+00  0.00000000E+00  1.00000000E+00  1.00000000E+00
  0.00000000E+00  1.00000000E+00  0.00000000E+00  0.00000000E+00  0.00000000E+00
  0.00000000E+00  0.00000000E+00  0.00000000E+00  0.00000000E+00  0.00000000E+00
  0.00000000E+00  0.00000000E+00
MxBond                                     I                3
NBond                                      I   N=           4
           1           3           1           1
IBond                                      I   N=          12
           2           0           0           1           3           4
           2           0           0           2           0           0
RBond                                      R   N=          12
  1.00000000E+00  0.00000000E+00  0.00000000E+00  1.00000000E+00  2.00000000E+00
  1.00000000E+00  2.00000000E+00  0.00000000E+00  0.00000000E+00  1.00000000E+00
  0.00000000E+00  0.00000000E+00
Virial Ratio                               R      2.009153217597806E+00
SCF Energy                                 R     -3.129681934489483E+02
Total Energy                               R     -3.129681934489483E+02
RMS Density                                R      9.134633046331269E-09
Job Status                                 I                1
Nuclear derivative order                   I                0
External E-field                           R   N=          35
  0.00000000E+00  0.00000000E+00  0.00000000E+00  0.00000000E+00  0.00000000E+00
  0.00000000E+00  0.00000000E+00  0.00000000E+00  0.00000000E+00  0.00000000E+00
  0.00000000E+00  0.00000000E+00  0.00000000E+00  0.00000000E+00  0.00000000E+00
  0.00000000E+00  0.00000000E+00  0.00000000E+00  0.00000000E+00  0.00000000E+00
  0.00000000E+00  0.00000000E+00  0.00000000E+00  0.00000000E+00  0.00000000E+00
  0.00000000E+00  0.00000000E+00  0.00000000E+00  0.00000000E+00  0.00000000E+00
  0.00000000E+00  0.00000000E+00  0.00000000E+00  0.00000000E+00  0.00000000E+00
IOpCl                                      I                0
IROHF                                      I                0
Alpha Orbital Energies                     R   N=          60
 -2.48171481E+01 -2.47545293E+01 -1.92040308E+01 -1.04711658E+01 -1.33641094E+00
 -1.22436474E+00 -1.05973151E+00 -6.98764056E-01 -6.03885699E-01 -5.65541940E-01
 -5.42091211E-01 -4.67139661E-01 -4.63086504E-01 -4.44035727E-01 -3.77913626E-01
 -3.35167690E-01 -6.88410640E-02 -1.59145445E-03  2.06317903E-01  2.88309454E-01
  4.68908080E-01  4.76041170E-01  4.86280439E-01  5.48304231E-01  8.40267899E-01
  9.36499521E-01  9.41784419E-01  1.04061595E+00  1.08127302E+00  1.11798929E+00
  1.22133779E+00  1.25960139E+00  1.26417013E+00  1.33370400E+00  1.35610801E+00
  1.37630185E+00  1.54548552E+00  1.61278988E+00  1.73677656E+00  1.75216356E+00
  1.77324301E+00  1.79175575E+00  1.81306749E+00  1.82182965E+00  1.85144663E+00
  1.91006555E+00  1.93186139E+00  1.99842198E+00  2.10020053E+00  2.41890729E+00
  2.55731999E+00  2.58641658E+00  2.67924175E+00  2.85778356E+00  2.97690286E+00
  3.02574408E+00  3.69549509E+00  4.07407292E+00  4.25197034E+00  4.59964289E+00
Alpha MO coefficients                      R   N=        3600
  9.92973219E-01  1.94923104E-02  7.25793638E-04  4.13486188E-04  4.98221040E-05
  1.57059998E-02 -3.43531283E-04 -1.98796647E-04 -1.57477922E-05 -8.42022759E-03
 -8.22106320E-03 -8.07320764E-03 -2.68075668E-04 -2.36471837E-05 -1.59556734E-05
  1.71851578E-05  4.53060330E-04 -5.93581079E-04 -3.53193535E-04 -4.41083431E-05
 -5.37204267E-04  8.17967220E-04  5.64629854E-04  1.88491184E-05  2.96498163E-04
  1.71919683E-04 -4.40247365E-05  1.72018446E-04  1.42046515E-05  7.43548892E-06
  2.15509738E-05  1.51046384E-04  1.74327056E-05  1.16807155E-06  1.08480806E-06
 -5.56495893E-04 -1.26156159E-04  2.33519800E-04 -1.72646901E-05  4.64770621E-05
 -5.76863492E-05  1.06214104E-04 -3.93702249E-05 -5.62631481E-06  5.15196272E-06
  2.83214280E-05  2.34883173E-04 -3.78955881E-05  2.61310383E-05  2.52477405E-06
 -7.20696236E-04  1.24354371E-04 -1.51356451E-04 -1.24837802E-05  9.53191503E-05
  1.62148205E-04  1.94658907E-04  2.02999255E-05  1.88315953E-06 -5.73420313E-06
  6.29196834E-05  3.14808794E-04  2.87883295E-05  3.46259311E-05  2.63039218E-06
 -9.85124721E-04 -1.67211165E-04 -2.88429391E-04 -2.18697094E-05  1.52231116E-04
  1.28342469E-04  2.76383492E-04 -9.60841939E-05 -7.10989988E-06 -1.78041058E-05
  2.20029205E-05 -1.06093920E-04  3.22450541E-04 -1.56781561E-04 -3.09763676E-05
 -2.63204340E-04 -7.43868077E-04  3.60928380E-04  2.60754415E-06  7.53758117E-04
  2.73514617E-04  8.08618727E-05 -2.39825734E-04 -2.23001625E-05  8.78690414E-06
  3.02428174E-05  1.93729026E-04 -1.95271657E-06 -1.67566339E-05  1.07094729E-06
 -6.67401978E-04  1.09632383E-04  3.10724217E-04 -1.77362666E-05  5.19543358E-05
 -3.52597365E-05  1.59124439E-04 -2.88067002E-06  9.84672161E-06  1.06124684E-05
  9.93027143E-01  1.95754654E-02 -6.17132983E-04  1.83199553E-04  3.42988363E-05
  1.51494815E-02  2.23331622E-04 -6.19797366E-05 -7.05643008E-06 -8.27738444E-03
 -8.00313768E-03 -7.95410160E-03  1.63959440E-04  1.73553034E-05 -7.82743157E-06
  1.29080099E-05  8.42087541E-05  2.69762381E-05 -3.52468411E-05  5.60107528E-06
 -2.04144113E-04 -7.93138271E-05  1.86738700E-04 -2.10537202E-05  1.06107428E-04
 -4.84312697E-05  7.29226854E-05 -1.56557555E-05  3.44240973E-06  5.58226264E-06
  3.26296779E-05  6.44175052E-04  2.89108484E-05  1.35795018E-04 -7.47921606E-06
 -2.74572713E-03 -5.31196043E-06 -2.02568797E-03  1.11633843E-04  1.86135952E-05
 -5.41658588E-04  3.79259885E-05 -1.92909976E-05 -1.39918408E-06  3.48785265E-05
  9.92853852E-01  2.57998988E-02 -1.54574867E-05 -1.08584826E-03  6.81641889E-05
  1.19626690E-02  3.01683096E-05 -1.07044685E-03  4.92375957E-05 -7.85079240E-03
 -7.54425059E-03 -7.86904060E-03 -1.08200931E-05  7.67459138E-07 -1.70590082E-05
  9.36247814E-06  7.29948444E-05 -1.71448453E-05 -2.30128960E-05  3.17171716E-06
 -1.13456247E-04  8.72828840E-05  1.40823652E-04 -1.57909227E-05  2.13632903E-05
 -2.71952428E-05  8.25471249E-05  3.12343250E-05  4.03104037E-06  4.73985818E-06
  4.80746485E-05  8.11538537E-04  1.02839615E-04  6.73557202E-05  1.03495413E-05
 -2.84788611E-03 -1.92585668E-03 -1.26229593E-03 -1.34019557E-04 -3.41159666E-04
  3.09313638E-04  7.25220145E-04 -7.23349388E-04 -8.42391918E-05 -5.24871084E-05
  9.93061334E-01  4.56216605E-02 -8.33984919E-04 -1.51882382E-03 -9.16295491E-05
 -4.07276856E-03 -7.64401204E-04 -1.59961794E-04 -3.46477774E-05 -7.77565003E-03
 -8.15092399E-03 -9.31216987E-03  5.26177514E-04  4.02109195E-05  2.89614865E-05
 -1.65570182E-04 -1.11604897E-04 -3.86441131E-05 -3.39692823E-05 -2.46228198E-06
  3.65389261E-04  1.84559649E-04  5.90756089E-04 -3.19643308E-05 -1.20990506E-04
 -1.17844141E-04 -4.63469791E-05  2.35530328E-05 -2.43778779E-06  1.65305494E-05
 -4.87687482E-05  6.32788372E-06 -1.10293311E-04  1.88216310E-05  4.78324067E-06
  5.42729007E-04  8.81148082E-04 -2.38926123E-04 -3.42009993E-05 -7.60035554E-04
 -3.94544202E-05  1.10523964E-04  3.74200064E-04  5.03110698E-05 -1.92866821E-05
 -2.14038065E-01  4.86522799E-01  9.43677327E-02  5.97959673E-02  5.80435678E-03
  4.27952189E-01  4.54046245E-02  2.72176773E-02  2.69639552E-03  2.38553747E-02
  1.33555844E-02  9.32843364E-03  1.07579849E-02  1.10929902E-03  7.00123483E-04
 -7.81171913E-02  1.51387285E-01 -9.27324937E-02 -6.48392238E-02 -6.55923825E-03
  2.72956462E-02  7.53494088E-03  1.43023487E-06  1.63900017E-03  8.60266141E-03
 -3.81180044E-03 -1.60950934E-02  2.07177145E-02  1.60998231E-03  1.14018647E-03
 -1.77635225E-02  3.93522674E-02 -5.31163811E-03 -2.41380116E-02  6.22091387E-04
  3.27509692E-02 -5.38752703E-03 -1.35588058E-02 -1.68740615E-04 -1.32820551E-03
  6.48678523E-03 -3.75573476E-04  2.67855784E-03 -2.04445552E-04 -1.22869821E-04
 -3.07151786E-02  6.80061227E-02 -1.83237208E-02  4.43211774E-03  5.59884821E-04
  6.10712783E-02 -1.67424802E-02  2.02969260E-03  5.86574714E-05  9.38649287E-03
  3.30469017E-04  2.49229445E-04 -2.57940939E-03 -3.04907322E-04  5.43819037E-05
  4.60884620E-02 -1.05211237E-01 -5.77433767E-03 -9.41481807E-03 -1.15517794E-03
 -9.95832938E-02  3.26294050E-03 -3.02610530E-03 -8.16703546E-04  6.74118564E-04
 -2.87550041E-03 -2.49372420E-03  2.82837571E-04 -7.51569716E-05 -1.17992384E-04
 -4.29765512E-02  8.70679270E-02  1.03286325E-01 -2.73112833E-03 -2.89598615E-03
  2.35588796E-02 -3.63635662E-03 -5.53842031E-03  8.33383411E-04  3.13279757E-03
 -3.39554322E-03 -6.98860605E-03 -1.62056745E-02 -1.35438256E-03 -1.14665371E-04
 -2.25212949E-02  4.89124998E-02  9.28469700E-03 -2.49645365E-02  9.03743283E-04
  4.43641440E-02  7.11253361E-03 -1.11747414E-02  1.67289827E-04 -1.17349573E-03
  3.91816600E-03 -9.43368395E-04 -2.95529425E-03  1.49476789E-04 -2.24711748E-04
 -2.21122037E-01  4.95085499E-01 -6.88271928E-02  2.75066869E-02  3.37477274E-03
  4.76741531E-01 -4.38335763E-02  1.67356619E-02  2.17753576E-03  2.35522803E-02
  7.76810408E-03  6.48207585E-03 -7.92854121E-03 -1.07701929E-03  4.30009003E-04
  3.57916156E-02 -8.18337972E-02  1.92447780E-03  2.66563621E-02 -7.67714682E-04
 -8.46647221E-02  5.58591425E-03  2.14563981E-02 -5.26541915E-04 -4.75534666E-04
  2.67260335E-03 -1.74250306E-03  5.12964818E-03 -7.44826485E-05  2.51162782E-04
 -8.75583017E-02  1.91163125E-01 -3.03393121E-03  2.19136639E-01 -8.07427202E-03
  3.37516999E-02  2.09138307E-04 -1.10391090E-02  1.84443469E-03 -2.56041008E-02
  2.25991627E-02 -1.34582398E-02 -3.18860864E-03 -6.56066449E-05 -2.89882162E-03
 -1.95597465E-01  4.34536898E-01 -8.02612712E-04 -1.52884647E-01  7.97541828E-03
  4.03304620E-01 -1.53607300E-03 -5.73595879E-02  2.75656955E-03 -9.44219207E-03
  1.08136068E-02 -5.45551191E-03  7.71777303E-05  6.77156551E-07 -1.21188652E-03
  4.72685440E-02 -1.05973977E-01 -4.80856479E-03  1.72568291E-02 -3.56084523E-04
 -1.14686809E-01 -3.93563513E-03  1.30091413E-02 -4.50908992E-04  6.34095884E-04
  3.25241198E-04 -1.30013012E-03 -3.22129919E-03  1.27421181E-05  1.18988658E-04
  8.25993272E-02 -1.72188737E-01  4.03745849E-01  2.17437830E-01  2.49581128E-02
 -2.96978009E-01  2.28210345E-01  1.18924941E-01  1.38808556E-02  2.38171980E-02
  4.63063465E-03 -5.74075430E-04  1.38952387E-02  1.81479908E-03  9.01025683E-04
 -1.21187206E-01  2.95036565E-01 -1.00931286E-01 -1.87003087E-01 -3.34133601E-03
  1.63383101E-01  7.69059969E-03 -2.04057292E-02  3.17706996E-03  4.06699243E-03
 -1.24657495E-02 -1.34718397E-02  1.28438204E-02  8.35853833E-04  1.46713885E-03
  5.62777576E-02 -1.25174998E-01 -1.79817346E-02 -5.19673355E-02  6.51134046E-04
 -1.64101745E-01 -1.37645912E-02 -2.93663990E-02 -1.98669777E-04  8.11636887E-04
  1.11221110E-02  1.54528165E-03  3.40752385E-03 -2.48104494E-04 -1.09420520E-04
  3.94543427E-02 -8.03909434E-02 -1.54820881E-01  2.35871773E-02  6.27703450E-03
 -1.42797389E-01 -9.57778442E-02  9.32569434E-03  3.20092304E-03  1.79824649E-02
  3.88790798E-04  1.31641708E-03 -3.14953503E-03 -6.99383310E-04  4.85546937E-05
  2.00553776E-02 -3.55064732E-02  7.09103047E-02  3.29284251E-01  2.17228316E-02
 -8.46618217E-02  2.81297797E-02  1.97952275E-01  1.34980659E-02 -4.59398901E-03
  1.44682964E-02  1.46822346E-03  9.60529609E-03  6.79463419E-04  1.33587029E-03
  4.31801049E-02 -1.03791083E-01 -3.36667395E-01  5.31832123E-02  7.18233564E-04
 -8.52762960E-02 -5.36866885E-02  4.56480173E-02 -3.13280887E-04  6.31625238E-03
 -1.50809145E-03  9.46283793E-04  1.49444141E-02  1.99012565E-03 -3.72538988E-04
 -1.56320159E-02  3.81609173E-02 -1.19058040E-01  3.28890668E-02 -8.80194117E-04
  3.15670359E-02 -6.96818567E-02  2.23694980E-02 -1.28743932E-03  1.50113377E-03
 -2.70771447E-03  4.63101786E-04  1.29704950E-02 -6.94547647E-04  9.01666803E-05
 -5.91244227E-02  1.13280070E-01  3.64972472E-01 -1.77448710E-01 -1.94082982E-02
  2.34631346E-01  2.16017635E-01 -1.08564861E-01 -1.17228345E-02 -2.34528621E-02
 -8.75071732E-03 -4.24111829E-03  9.91654572E-03  1.31279952E-03 -6.49724908E-04
 -3.49653692E-04 -7.81611090E-05 -2.90666226E-02 -2.24459298E-02  5.38319326E-01
  2.34021934E-03 -1.78156853E-02 -1.29781928E-02  3.45005539E-01 -2.13276325E-03
 -1.02867162E-03  2.26293678E-03 -1.21513493E-03  2.36313185E-02  1.40751367E-02
 -4.52209403E-03  1.10120644E-02  1.95915883E-03 -4.67002234E-04  2.84256534E-01
  4.91063729E-03 -4.69211669E-03 -7.18911291E-03  1.40671672E-01  4.67886946E-04
  5.58839935E-04 -2.62736214E-03  5.36992369E-04 -1.50138270E-02 -9.09568517E-03
 -1.41838359E-03  6.99903085E-04  2.10725975E-03  9.87588241E-03  1.29765671E-01
  1.59044974E-02  3.10557873E-03  3.47634023E-04  5.92584091E-02 -8.99992137E-04
 -1.77329371E-03  1.45629874E-05 -3.53916783E-04 -7.68469548E-04 -1.15357388E-02
 -1.47325176E-04 -1.81499595E-03  5.68459178E-03 -6.42909298E-04  1.55391743E-01
  5.98026644E-03  2.40366475E-03  2.02936385E-03  9.44905437E-02 -1.46373758E-03
 -7.50444600E-04 -4.12284477E-04 -2.21957448E-04 -8.27788044E-03  2.20921330E-03
  5.50903835E-03 -5.58569109E-03  3.36692098E-01 -3.25283684E-01  9.82247177E-03
 -3.57056411E-02  2.05450649E-01 -2.10725684E-01  5.69673067E-03  1.82812584E-02
 -1.16954237E-02  1.11638886E-03 -8.02544503E-03  9.24868606E-04 -8.00228143E-04
  5.11486307E-02 -1.36303732E-01 -4.84149774E-02 -2.10402196E-01 -1.78265839E-03
 -1.13924173E-01  1.92534950E-02 -1.13413984E-01 -1.78410768E-03 -1.00408555E-02
  2.16603994E-02  2.81890972E-03  1.41836640E-02 -4.41520695E-05  1.24199207E-03
 -8.95532195E-02  1.84871113E-01 -4.74389168E-03  2.80804443E-01 -1.72450348E-02
  3.97897870E-01 -5.59370127E-03  1.12222171E-01 -5.67441888E-03 -8.09985056E-03
 -2.53672248E-02 -3.41101186E-03  2.06708090E-03 -2.25431939E-04  1.52486932E-03
 -8.09750305E-03  2.03390989E-02  5.06979985E-02 -1.78372307E-01 -9.54105672E-03
  1.25062402E-02  3.88767133E-02 -1.15130922E-01 -7.34475988E-03 -8.64310913E-05
 -1.07396554E-03  1.28787330E-03  8.78654859E-03  5.76399020E-04 -5.30722068E-04
 -1.25294369E-03 -7.93030081E-03  2.26212053E-01 -3.36246267E-01  1.47118345E-02
  3.81645822E-02  1.58504770E-01 -2.15554427E-01  1.19209426E-02  4.45569250E-03
 -1.27841359E-02 -4.35065246E-03 -2.48362431E-03  9.26026246E-04 -1.61738231E-04
 -3.09791773E-02  8.74402522E-02 -4.98804849E-02  2.13661495E-01 -6.39396732E-03
  2.34416035E-02  4.36830550E-02  1.75341829E-02 -2.84854314E-03 -2.71160161E-02
  1.37248070E-02 -2.10809117E-03  1.95966110E-02 -1.79948800E-03 -4.22572630E-04
  5.42381500E-02 -1.15389605E-01  3.97458516E-02 -3.31899848E-01  1.95201537E-02
 -2.19494578E-01  2.36024280E-02 -1.76592783E-01  1.17020928E-02 -7.48815578E-04
  2.02667748E-02 -8.68947212E-04  2.43127010E-05 -3.12467274E-04 -1.47848264E-03
 -8.12247823E-03  1.90869652E-02  3.39656364E-01  1.32149286E-01 -5.18397164E-02
  8.36197997E-03  2.32005921E-01  8.65794180E-02 -3.65587426E-02 -1.20817611E-02
  7.34313187E-03  2.46900770E-03 -2.79404694E-03  2.30178333E-03 -1.92078039E-04
 -6.64698013E-04 -2.67010568E-03  2.87722943E-02 -1.86885680E-02 -3.05469148E-01
  1.40514197E-02  2.11252791E-02 -8.07053862E-03 -2.20411672E-01 -6.06750811E-04
 -1.66074350E-03 -2.89134693E-03  4.57435085E-04 -8.12260784E-03 -5.77884553E-03
 -4.66258063E-03  1.17966135E-02 -4.71404613E-03  1.61655437E-02  1.31138888E-01
  4.69934647E-03  1.43829767E-02 -3.36522036E-03  8.61930835E-02 -3.00677625E-03
  1.58943300E-03 -9.71746869E-04 -6.61213103E-04  2.58439496E-02  5.26475682E-03
  3.29708987E-03 -8.26285363E-03 -6.89129044E-03 -1.69180306E-02  1.22025934E-01
 -7.24366876E-03 -9.59489277E-03 -1.14743010E-02  6.83256320E-02 -7.29361688E-04
  5.01887397E-04  1.93997337E-04  1.24962632E-03  2.25162190E-03 -8.52430985E-03
 -3.23090123E-04  2.19102708E-03  4.50589108E-02 -2.62877014E-02  5.61232974E-01
 -5.35857965E-03  3.14657573E-02 -1.93288889E-02  3.84909933E-01 -1.20128017E-03
  3.44417680E-04  2.47378366E-03  1.20213084E-03 -1.91059615E-02  7.23094771E-03
 -6.90208502E-03  2.44715533E-03  8.41815102E-02  1.33292126E-01  4.72188557E-04
  8.68625354E-02  6.61071791E-02  8.74873808E-02  1.99153884E-03 -5.54555031E-03
 -8.53106234E-03 -5.94379173E-03  1.86452385E-03  1.06923329E-04 -2.14512150E-04
  2.77563135E-02 -7.31625993E-02  2.09005642E-02 -1.33800602E-01 -1.79753800E-03
 -2.80628576E-02  5.96771690E-02  1.15488447E-01 -4.19565821E-04  2.80016610E-02
 -1.62992187E-02  7.59120323E-04  2.18601122E-02  9.74316114E-04 -4.65125538E-04
 -2.74722189E-02  6.87802671E-02  1.04185748E-01  2.47887328E-01 -2.16039007E-02
  4.14593503E-02  6.56125481E-02  1.59598085E-01 -1.70036214E-02  7.89629014E-03
 -1.15876565E-02  4.04855444E-03 -5.48712784E-03  2.66501324E-04  1.80397213E-03
  3.27661327E-04  5.43706221E-03  1.70699573E-01  5.52903510E-01  3.23395128E-02
 -1.12998605E-02  1.16066389E-01  3.64924309E-01  2.22593402E-02 -5.52682491E-03
  1.00581274E-02  2.86782659E-03 -1.10234637E-02 -6.87887442E-04  9.43764961E-04
 -3.46184616E-04  5.44963896E-04  6.68960129E-03  1.52740676E-02 -2.11943358E-01
  2.89523701E-03  6.68650254E-03  7.79728304E-03 -1.53811799E-01  2.53437134E-04
 -3.55457193E-04 -3.82931557E-04 -9.47462475E-05 -2.70915898E-03  1.32382691E-03
 -2.89378593E-03  4.32693240E-03 -1.99385821E-04 -6.55061325E-03  2.54796897E-01
  2.75025712E-02 -9.41738240E-04  1.77134522E-02  9.56815893E-02  4.73662437E-05
  5.90671145E-04 -1.14755368E-03  2.05415634E-04 -3.16095665E-03  3.63568813E-02
 -3.71252608E-04  2.93264583E-03  2.26525255E-03  5.09712185E-02  5.06940369E-01
 -1.26041110E-02  1.98936867E-03  3.79609011E-02  3.44624626E-01  1.21051615E-03
 -3.27074091E-03  3.98822204E-03 -2.19160564E-04 -7.40585052E-04 -3.06101794E-02
 -2.69277042E-04  3.07212273E-04 -1.04216145E-02  1.63671440E-02 -2.96089457E-01
  2.16383280E-03 -8.63744175E-03  9.07719294E-03 -2.12065583E-01  4.99552998E-04
 -3.07462037E-04 -6.25069077E-04  8.65762640E-05  5.05789870E-03  8.34887575E-04
 -1.02815534E-02  1.82925242E-02  2.65853237E-02  1.55426174E-01  3.51856834E-03
  8.31433031E-02  2.73897263E-02  1.19013833E-01  3.97562057E-03 -4.71307012E-03
 -1.98353812E-03 -2.09293208E-03  4.32496996E-03 -1.80764375E-04  3.26659768E-04
 -2.38605429E-03  8.36451980E-03  7.62305494E-02  5.96289248E-03 -1.42361403E-03
 -2.26118280E-02  1.12080177E-01 -6.97563046E-03  7.11306649E-04 -4.77170552E-03
  2.08605059E-03 -3.00530735E-04  4.04770296E-02 -4.41909702E-04  1.27785283E-04
 -1.18972468E-03  4.27638296E-03  6.15939890E-01 -1.31201760E-02  2.03298547E-03
  8.72134377E-03  4.02607813E-01 -1.11893190E-02  1.53482040E-03 -1.31796398E-03
  1.78667897E-03  7.48253935E-04 -2.63875069E-02  1.64590126E-03 -8.95561980E-05
  9.51690863E-03 -1.90056557E-02  8.96109270E-02 -2.20740146E-01 -2.78655439E-03
 -6.90771085E-02  7.95776806E-02 -1.58678780E-01 -3.69001176E-03 -2.45329910E-03
  3.06532324E-03  1.41990826E-03  5.46733204E-03  2.71507218E-04 -3.84912888E-04
  1.69344410E-02 -3.41099581E-02 -8.87009844E-02 -2.40569706E-02 -2.20120038E-01
 -1.32045923E-01 -9.28865355E-02 -3.44860464E-02 -1.83627371E-01  2.50606364E-03
  1.24727755E-04  6.76771413E-03 -2.09624635E-03  1.40616226E-02  6.67548336E-03
 -5.45965238E-02  1.04325128E-01  4.00474175E-02 -8.93005309E-02  5.81250788E-01
  4.15360405E-01  3.81597300E-03 -3.65730973E-02  4.00962045E-01 -1.35316340E-02
 -9.08046978E-03  1.04385218E-02 -1.86593180E-03  7.84853897E-04 -2.29495662E-02
  1.03217545E-02 -2.05564975E-02 -1.30659333E-02  4.58291131E-02 -3.92446259E-01
 -9.51538675E-02 -1.11863816E-02  6.41188977E-02 -3.64645062E-01  1.91945278E-03
 -2.33303885E-03  5.81201483E-03 -5.34573788E-04  5.84433840E-04 -3.93383868E-03
  1.69348865E-02 -3.65671135E-02  1.17378798E-01 -2.70545454E-02 -1.81163123E-01