 Entering Gaussian System, Link 0=g16
 Input=CF2O_1000K_step0035.gjf
 Output=CF2O_1000K_step0035.log
 Initial command:
 /apps/easybuild-2022/easybuild/software/Compiler/NVHPC/22.11-CUDA-11.7.0/Gaussian/g16c01-CUDA-11.7.0/g16/l1.exe "/tmp/Gau-265264.inp" -scrdir="/tmp/"
 Default is to use a total of   4 processors:
                                4 via shared-memory
                                1 via Linda
 Entering Link 1 = /apps/easybuild-2022/easybuild/software/Compiler/NVHPC/22.11-CUDA-11.7.0/Gaussian/g16c01-CUDA-11.7.0/g16/l1.exe PID=    265265.
  
 Copyright (c) 1988-2019, Gaussian, Inc.  All Rights Reserved.
  
 This is part of the Gaussian(R) 16 program.  It is based on
 the Gaussian(R) 09 system (copyright 2009, Gaussian, Inc.),
 the Gaussian(R) 03 system (copyright 2003, Gaussian, Inc.),
 the Gaussian(R) 98 system (copyright 1998, Gaussian, Inc.),
 the Gaussian(R) 94 system (copyright 1995, Gaussian, Inc.),
 the Gaussian 92(TM) system (copyright 1992, Gaussian, Inc.),
 the Gaussian 90(TM) system (copyright 1990, Gaussian, Inc.),
 the Gaussian 88(TM) system (copyright 1988, Gaussian, Inc.),
 the Gaussian 86(TM) system (copyright 1986, Carnegie Mellon
 University), and the Gaussian 82(TM) system (copyright 1983,
 Carnegie Mellon University). Gaussian is a federally registered
 trademark of Gaussian, Inc.
  
 This software contains proprietary and confidential information,
 including trade secrets, belonging to Gaussian, Inc.
  
 This software is provided under written license and may be
 used, copied, transmitted, or stored only in accord with that
 written license.
  
 The following legend is applicable only to US Government
 contracts under FAR:
  
                    RESTRICTED RIGHTS LEGEND
  
 Use, reproduction and disclosure by the US Government is
 subject to restrictions as set forth in subparagraphs (a)
 and (c) of the Commercial Computer Software - Restricted
 Rights clause in FAR 52.227-19.
  
 Gaussian, Inc.
 340 Quinnipiac St., Bldg. 40, Wallingford CT 06492
  
  
 ---------------------------------------------------------------
 Warning -- This program may not be used in any manner that
 competes with the business of Gaussian, Inc. or will provide
 assistance to any competitor of Gaussian, Inc.  The licensee
 of this program is prohibited from giving any competitor of
 Gaussian, Inc. access to this program.  By using this program,
 the user acknowledges that Gaussian, Inc. is engaged in the
 business of creating and licensing software in the field of
 computational chemistry and represents and warrants to the
 licensee that it is not a competitor of Gaussian, Inc. and that
 it will not use this program in any manner prohibited above.
 ---------------------------------------------------------------
  

 Cite this work as:
 Gaussian 16, Revision C.01,
 M. J. Frisch, G. W. Trucks, H. B. Schlegel, G. E. Scuseria, 
 M. A. Robb, J. R. Cheeseman, G. Scalmani, V. Barone, 
 G. A. Petersson, H. Nakatsuji, X. Li, M. Caricato, A. V. Marenich, 
 J. Bloino, B. G. Janesko, R. Gomperts, B. Mennucci, H. P. Hratchian, 
 J. V. Ortiz, A. F. Izmaylov, J. L. Sonnenberg, D. Williams-Young, 
 F. Ding, F. Lipparini, F. Egidi, J. Goings, B. Peng, A. Petrone, 
 T. Henderson, D. Ranasinghe, V. G. Zakrzewski, J. Gao, N. Rega, 
 G. Zheng, W. Liang, M. Hada, M. Ehara, K. Toyota, R. Fukuda, 
 J. Hasegawa, M. Ishida, T. Nakajima, Y. Honda, O. Kitao, H. Nakai, 
 T. Vreven, K. Throssell, J. A. Montgomery, Jr., J. E. Peralta, 
 F. Ogliaro, M. J. Bearpark, J. J. Heyd, E. N. Brothers, K. N. Kudin, 
 V. N. Staroverov, T. A. Keith, R. Kobayashi, J. Normand, 
 K. Raghavachari, A. P. Rendell, J. C. Burant, S. S. Iyengar, 
 J. Tomasi, M. Cossi, J. M. Millam, M. Klene, C. Adamo, R. Cammi, 
 J. W. Ochterski, R. L. Martin, K. Morokuma, O. Farkas, 
 J. B. Foresman, and D. J. Fox, Gaussian, Inc., Wallingford CT, 2019.
 
 ******************************************
 Gaussian 16:  ES64L-G16RevC.01  3-Jul-2019
                20-Mar-2025 
 ******************************************
 %chk=CF2O_1000K_step0035.chk
 %mem=8GB
 %nprocshared=4
 Will use up to    4 processors via shared memory.
 -----------------------------------------
 # B3LYP/6-31G(d) pop=full density=current
 -----------------------------------------
 1/30=1,38=1,172=1/1;
 2/12=2,17=6,18=5,40=1/2;
 3/5=1,6=6,7=1,11=2,25=1,30=1,74=-5/1,2,3;
 4//1;
 5/5=2,38=5/2;
 6/7=3,22=-1,28=1/1;
 99/5=1,9=1/99;
 -----------------
 CF2O Time step 35
 -----------------
 Symbolic Z-matrix:
 Charge =  0 Multiplicity = 1
 F                     1.21315  -0.58164   0.05162 
 C                     0.09118   0.07334  -0.07653 
 O                     0.00033   1.34528  -0.07602 
 F                    -1.27101  -0.59729   0.06072 
 
                          Input orientation:                          
 ---------------------------------------------------------------------
 Center     Atomic      Atomic             Coordinates (Angstroms)
 Number     Number       Type             X           Y           Z
 ---------------------------------------------------------------------
      1          9           0        1.213145   -0.581641    0.051622
      2          6           0        0.091175    0.073343   -0.076533
      3          8           0        0.000325    1.345279   -0.076017
      4          9           0       -1.271007   -0.597287    0.060718
 ---------------------------------------------------------------------
                    Distance matrix (angstroms):
                    1          2          3          4
     1  F    0.000000
     2  C    1.305467   0.000000
     3  O    2.280405   1.275177   0.000000
     4  F    2.484218   1.524507   2.325628   0.000000
 Stoichiometry    CF2O
 Framework group  C1[X(CF2O)]
 Deg. of freedom     6
 Full point group                 C1      NOp   1
 Largest Abelian subgroup         C1      NOp   1
 Largest concise Abelian subgroup C1      NOp   1
                         Standard orientation:                         
 ---------------------------------------------------------------------
 Center     Atomic      Atomic             Coordinates (Angstroms)
 Number     Number       Type             X           Y           Z
 ---------------------------------------------------------------------
      1          9           0       -1.162818   -0.692891   -0.017433
      2          6           0       -0.094914    0.052845    0.070335
      3          8           0       -0.100443    1.324931   -0.018217
      4          9           0        1.315377   -0.520055   -0.013264
 ---------------------------------------------------------------------
 Rotational constants (GHZ):          11.9133161           8.5797376           4.9949691
 Standard basis: 6-31G(d) (6D, 7F)
 There are    60 symmetry adapted cartesian basis functions of A   symmetry.
 There are    60 symmetry adapted basis functions of A   symmetry.
    60 basis functions,   112 primitive gaussians,    60 cartesian basis functions
    16 alpha electrons       16 beta electrons
       nuclear repulsion energy       110.8976558894 Hartrees.
 NAtoms=    4 NActive=    4 NUniq=    4 SFac= 1.00D+00 NAtFMM=   60 NAOKFM=F Big=F
 Integral buffers will be    131072 words long.
 Raffenetti 2 integral format.
 Two-electron integral symmetry is turned on.
 One-electron integrals computed using PRISM.
 NBasis=    60 RedAO= T EigKep=  4.46D-03  NBF=    60
 NBsUse=    60 1.00D-06 EigRej= -1.00D+00 NBFU=    60
 ExpMin= 1.69D-01 ExpMax= 7.00D+03 ExpMxC= 1.05D+03 IAcc=3 IRadAn=         5 AccDes= 0.00D+00
 Harris functional with IExCor=  402 and IRadAn=       5 diagonalized for initial guess.
 HarFok:  IExCor=  402 AccDes= 0.00D+00 IRadAn=         5 IDoV= 1 UseB2=F ITyADJ=14
 ICtDFT=  3500011 ScaDFX=  1.000000  1.000000  1.000000  1.000000
 FoFCou: FMM=F IPFlag=           0 FMFlag=      100000 FMFlg1=           0
         NFxFlg=           0 DoJE=T BraDBF=F KetDBF=T FulRan=T
         wScrn=  0.000000 ICntrl=       500 IOpCl=  0 I1Cent=   200000004 NGrid=           0
         NMat0=    1 NMatS0=      1 NMatT0=    0 NMatD0=    1 NMtDS0=    0 NMtDT0=    0
 Petite list used in FoFCou.
 Keep R1 ints in memory in canonical form, NReq=5215649.
 Requested convergence on RMS density matrix=1.00D-08 within 128 cycles.
 Requested convergence on MAX density matrix=1.00D-06.
 Requested convergence on             energy=1.00D-06.
 No special actions if energy rises.
 Integral accuracy reduced to 1.0D-05 until final iterations.
 Initial convergence to 1.0D-05 achieved.  Increase integral accuracy.
 SCF Done:  E(RB3LYP) =  -312.956915116     A.U. after   15 cycles
            NFock= 15  Conv=0.35D-08     -V/T= 2.0093

 **********************************************************************

            Population analysis using the SCF Density.

 **********************************************************************

 Orbital symmetries:
       Occupied  (A) (A) (A) (A) (A) (A) (A) (A) (A) (A) (A) (A)
                 (A) (A) (A) (A)
       Virtual   (A) (A) (A) (A) (A) (A) (A) (A) (A) (A) (A) (A)
                 (A) (A) (A) (A) (A) (A) (A) (A) (A) (A) (A) (A)
                 (A) (A) (A) (A) (A) (A) (A) (A) (A) (A) (A) (A)
                 (A) (A) (A) (A) (A) (A) (A) (A)
 The electronic state is 1-A.
 Alpha  occ. eigenvalues --  -24.82443 -24.74309 -19.21071 -10.47445  -1.34208
 Alpha  occ. eigenvalues --   -1.20341  -1.06106  -0.70235  -0.59531  -0.56821
 Alpha  occ. eigenvalues --   -0.54434  -0.46495  -0.45155  -0.43474  -0.37970
 Alpha  occ. eigenvalues --   -0.33819
 Alpha virt. eigenvalues --   -0.08186  -0.01579   0.18917   0.28359   0.46831
 Alpha virt. eigenvalues --    0.47588   0.49406   0.54545   0.83789   0.93222
 Alpha virt. eigenvalues --    0.93719   1.03987   1.07796   1.11775   1.21899
 Alpha virt. eigenvalues --    1.25781   1.26019   1.33178   1.35510   1.38396
 Alpha virt. eigenvalues --    1.52802   1.60541   1.72662   1.74921   1.76881
 Alpha virt. eigenvalues --    1.78365   1.81724   1.82435   1.83831   1.89690
 Alpha virt. eigenvalues --    1.93683   1.97219   2.09963   2.36678   2.54330
 Alpha virt. eigenvalues --    2.55662   2.66082   2.82436   2.96493   3.01639
 Alpha virt. eigenvalues --    3.68474   4.02686   4.20144   4.58166
     Molecular Orbital Coefficients:
                           1         2         3         4         5
                           O         O         O         O         O
     Eigenvalues --   -24.82443 -24.74309 -19.21071 -10.47445  -1.34208
   1 1   F  1S          0.99297   0.00006   0.00001   0.00005  -0.21596
   2        2S          0.01948   0.00029   0.00009   0.00084   0.49160
   3        2PX         0.00072   0.00002   0.00003   0.00010   0.09367
   4        2PY         0.00044   0.00004  -0.00003   0.00007   0.06269
   5        2PZ         0.00007   0.00000   0.00001   0.00002   0.00803
   6        3S          0.01574  -0.00093  -0.00023  -0.00297   0.43051
   7        3PX        -0.00033  -0.00014  -0.00008  -0.00192   0.04415
   8        3PY        -0.00021  -0.00029   0.00019  -0.00134   0.02848
   9        3PZ        -0.00002  -0.00003  -0.00003  -0.00019   0.00372
  10        4XX        -0.00841   0.00017   0.00011  -0.00031   0.02338
  11        4YY        -0.00824   0.00011  -0.00004   0.00030   0.01410
  12        4ZZ        -0.00808   0.00027   0.00008   0.00074   0.00965
  13        4XY        -0.00027  -0.00010  -0.00001  -0.00075   0.01090
  14        4XZ        -0.00003  -0.00001   0.00001  -0.00012   0.00147
  15        4YZ        -0.00002  -0.00003   0.00001  -0.00007   0.00099
  16 2   C  1S          0.00002   0.00003   0.00003   0.99308  -0.07576
  17        2S          0.00046  -0.00020   0.00064   0.04556   0.14702
  18        2PX        -0.00060   0.00023   0.00003  -0.00102  -0.09656
  19        2PY        -0.00036  -0.00011   0.00016  -0.00149  -0.06711
  20        2PZ        -0.00006  -0.00003  -0.00001  -0.00012  -0.00875
  21        3S         -0.00056  -0.00027  -0.00269  -0.00429   0.02656
  22        3PX         0.00080  -0.00071  -0.00002  -0.00093   0.00813
  23        3PY         0.00061   0.00036  -0.00199  -0.00019   0.00016
  24        3PZ         0.00003   0.00000   0.00015  -0.00003   0.00210
  25        4XX         0.00026   0.00075   0.00002  -0.00790   0.00823
  26        4YY         0.00016   0.00026  -0.00051  -0.00813  -0.00281
  27        4ZZ        -0.00005   0.00011   0.00004  -0.00926  -0.01568
  28        4XY         0.00018  -0.00022  -0.00002   0.00065   0.02192
  29        4XZ         0.00002  -0.00003  -0.00000   0.00007   0.00226
  30        4YZ         0.00001   0.00001   0.00004   0.00004   0.00165
  31 3   O  1S          0.00002   0.00003   0.99286  -0.00016  -0.01626
  32        2S          0.00015   0.00020   0.02580  -0.00014   0.03596
  33        2PX         0.00002   0.00000  -0.00003  -0.00005  -0.00543
  34        2PY        -0.00000  -0.00003  -0.00107  -0.00002  -0.02213
  35        2PZ         0.00000   0.00000   0.00009  -0.00000   0.00074
  36        3S         -0.00058  -0.00068   0.01186   0.00050   0.03034
  37        3PX        -0.00012   0.00010   0.00003   0.00023  -0.00577
  38        3PY         0.00023   0.00031  -0.00104   0.00054  -0.01299
  39        3PZ        -0.00002  -0.00002   0.00007  -0.00004  -0.00023
  40        4XX         0.00005   0.00006  -0.00783  -0.00013  -0.00125
  41        4YY        -0.00005  -0.00001  -0.00755  -0.00014   0.00613
  42        4ZZ         0.00011   0.00017  -0.00785  -0.00006  -0.00041
  43        4XY        -0.00004  -0.00001  -0.00001   0.00003   0.00289
  44        4XZ        -0.00001   0.00001   0.00000  -0.00000  -0.00029
  45        4YZ         0.00001   0.00001  -0.00002   0.00002  -0.00012
  46 4   F  1S          0.00002   0.99304   0.00001  -0.00007  -0.02131
  47        2S          0.00021   0.01956   0.00008  -0.00015   0.04673
  48        2PX        -0.00004  -0.00057  -0.00002  -0.00010  -0.01323
  49        2PY         0.00002   0.00015  -0.00002   0.00001   0.00267
  50        2PZ         0.00000   0.00004   0.00000   0.00001   0.00049
  51        3S         -0.00066   0.01510  -0.00012   0.00113   0.04167
  52        3PX         0.00010   0.00013   0.00008   0.00062  -0.01335
  53        3PY        -0.00014  -0.00003   0.00013  -0.00011   0.00084
  54        3PZ        -0.00002  -0.00000  -0.00002  -0.00003  -0.00008
  55        4XX         0.00011  -0.00820   0.00002  -0.00081   0.00773
  56        4YY         0.00015  -0.00798  -0.00001  -0.00014  -0.00013
  57        4ZZ         0.00018  -0.00795   0.00009  -0.00002  -0.00018
  58        4XY         0.00002   0.00012   0.00002   0.00031  -0.00194
  59        4XZ         0.00000   0.00002   0.00001   0.00006  -0.00031
  60        4YZ        -0.00001  -0.00001   0.00001  -0.00002   0.00005
                           6         7         8         9        10
                           O         O         O         O         O
     Eigenvalues --    -1.20341  -1.06106  -0.70235  -0.59531  -0.56821
   1 1   F  1S          0.03638   0.03463   0.08393   0.01465  -0.00039
   2        2S         -0.08325  -0.07921  -0.17537  -0.02416  -0.00000
   3        2PX        -0.00149   0.00196   0.40788  -0.00160  -0.03722
   4        2PY        -0.00636   0.02637   0.23835   0.36548  -0.03676
   5        2PZ        -0.00121  -0.00103   0.03532   0.03063   0.55690
   6        3S         -0.08024  -0.08208  -0.30135  -0.06424   0.00198
   7        3PX         0.00464   0.00548   0.22925  -0.01513  -0.02291
   8        3PY        -0.00131   0.02159   0.13047   0.22124  -0.02188
   9        3PZ        -0.00092  -0.00072   0.01968   0.01922   0.35726
  10        4XX         0.00121  -0.00061   0.02281  -0.00842  -0.00257
  11        4YY        -0.00213   0.00298   0.00547   0.01645  -0.00160
  12        4ZZ        -0.00215  -0.00169  -0.00070   0.00171   0.00331
  13        4XY         0.00074   0.00508   0.01471   0.00919  -0.00188
  14        4XZ        -0.00006  -0.00012   0.00248   0.00075   0.02372
  15        4YZ        -0.00009   0.00033   0.00135   0.00199   0.01506
  16 2   C  1S         -0.04317  -0.08723  -0.11989   0.04784  -0.00574
  17        2S          0.08884   0.19051   0.29182  -0.11470   0.01402
  18        2PX         0.09041  -0.00256  -0.11431  -0.32484   0.00373
  19        2PY         0.00342   0.21496  -0.18356   0.06458  -0.00268
  20        2PZ        -0.00386  -0.01085  -0.00468   0.00196   0.27472
  21        3S          0.02674   0.03395   0.16342  -0.09789   0.00650
  22        3PX        -0.00129  -0.00006   0.00878  -0.06490  -0.00664
  23        3PY        -0.00723  -0.01133  -0.01805   0.05979  -0.01085
  24        3PZ         0.00103   0.00246   0.00403   0.00015   0.13482
  25        4XX         0.00211  -0.02475   0.00396   0.00990   0.00054
  26        4YY        -0.00260   0.02249  -0.01187  -0.00384   0.00101
  27        4ZZ        -0.00675  -0.01331  -0.01357   0.00077  -0.00342
  28        4XY        -0.01321  -0.00364   0.01468   0.01114   0.00091
  29        4XZ        -0.00148  -0.00014   0.00127   0.00241  -0.01716
  30        4YZ        -0.00029  -0.00384   0.00199  -0.00068  -0.00935
  31 3   O  1S         -0.02658  -0.19561   0.05578  -0.01498  -0.00246
  32        2S          0.05765   0.43558  -0.12433   0.03809   0.00218
  33        2PX         0.00861  -0.00201  -0.01996  -0.12400   0.00368
  34        2PY        -0.02805  -0.15104  -0.05205   0.03622   0.01448
  35        2PZ         0.00143   0.01062   0.00092  -0.00090   0.12343
  36        3S          0.05345   0.40479  -0.16396   0.02299   0.02347
  37        3PX         0.00636  -0.00233  -0.01547  -0.07128   0.00491
  38        3PY        -0.01249  -0.05755  -0.02878   0.02650   0.00106
  39        3PZ         0.00036   0.00375  -0.00030  -0.00210   0.05674
  40        4XX        -0.00138  -0.00938   0.00094   0.00234  -0.00124
  41        4YY         0.00391   0.01085   0.01097  -0.00250  -0.00249
  42        4ZZ        -0.00122  -0.00530   0.00143   0.00084  -0.00001
  43        4XY        -0.00260   0.00026   0.00392   0.01273  -0.00057
  44        4XZ         0.00015  -0.00001  -0.00037  -0.00087  -0.00092
  45        4YZ        -0.00034  -0.00163  -0.00014   0.00009  -0.01095
  46 4   F  1S         -0.22329   0.05010   0.03365  -0.05618   0.00005
  47        2S          0.49856  -0.11194  -0.06821   0.10659  -0.00283
  48        2PX        -0.06187  -0.00468  -0.12243   0.34436   0.00319
  49        2PY         0.02268   0.01478   0.01489  -0.14657  -0.00017
  50        2PZ         0.00386  -0.00039   0.00637  -0.02224   0.11575
  51        3S          0.48612  -0.12126  -0.12251   0.22651   0.00670
  52        3PX        -0.04200  -0.00311  -0.07660   0.20588   0.00042
  53        3PY         0.01469   0.01127   0.00416  -0.09025   0.00302
  54        3PZ         0.00262  -0.00058   0.00312  -0.01335   0.06922
  55        4XX         0.02338   0.00038   0.01598  -0.02408  -0.00158
  56        4YY         0.00688   0.00013   0.00043  -0.00850  -0.00093
  57        4ZZ         0.00592  -0.00119   0.00139  -0.00490  -0.00076
  58        4XY        -0.00740  -0.00270  -0.00229   0.00847  -0.00040
  59        4XZ        -0.00140   0.00004  -0.00075   0.00154  -0.00622
  60        4YZ         0.00051   0.00012   0.00003  -0.00069   0.00139
                          11        12        13        14        15
                           O         O         O         O         O
     Eigenvalues --    -0.54434  -0.46495  -0.45155  -0.43474  -0.37970
   1 1   F  1S          0.00579   0.00035  -0.00067  -0.00804  -0.00041
   2        2S         -0.00558   0.00731  -0.00295   0.00094   0.00094
   3        2PX         0.35122  -0.20781   0.01407   0.09768   0.00838
   4        2PY        -0.28531   0.33591   0.00594   0.08222   0.01973
   5        2PZ         0.01150   0.00840  -0.27836  -0.00346  -0.19825
   6        3S         -0.03599  -0.02377   0.01417   0.10287   0.00283
   7        3PX         0.21405  -0.14509   0.01134   0.07861   0.00834
   8        3PY        -0.18644   0.21556   0.00894   0.05611   0.00982
   9        3PZ         0.00658   0.00476  -0.20395   0.00011  -0.14284
  10        4XX         0.01794  -0.00484  -0.00132  -0.00658   0.00042
  11        4YY        -0.01115   0.01035  -0.00099  -0.01082  -0.00034
  12        4ZZ         0.00123   0.00322  -0.00322  -0.00743  -0.00030
  13        4XY        -0.00639   0.00188   0.00073   0.00175  -0.00015
  14        4XZ         0.00116  -0.00046  -0.00657   0.00015  -0.00226
  15        4YZ        -0.00107   0.00064  -0.00483  -0.00035   0.00139
  16 2   C  1S          0.05782   0.03171  -0.00385   0.01892  -0.00382
  17        2S         -0.15177  -0.09057   0.00862  -0.04841   0.00573
  18        2PX        -0.07393   0.07227  -0.00219   0.01810  -0.00036
  19        2PY        -0.21023  -0.23960   0.00047  -0.07807  -0.00801
  20        2PZ        -0.00534  -0.00351   0.15967   0.00147   0.24592
  21        3S         -0.13161  -0.01336   0.00633  -0.02102   0.03602
  22        3PX         0.01407  -0.02102   0.01287   0.06923  -0.00182
  23        3PY        -0.09928  -0.00682  -0.00624   0.12466   0.02273
  24        3PZ        -0.00370  -0.00434   0.10441   0.00264   0.08792
  25        4XX        -0.00798   0.03191  -0.00152   0.02008  -0.00001
  26        4YY         0.02030  -0.01748   0.00080  -0.01216   0.00086
  27        4ZZ         0.00294   0.00251  -0.00125   0.00028  -0.00152
  28        4XY         0.01589  -0.01270  -0.00296   0.02416   0.00042
  29        4XZ         0.00030   0.00011   0.02299   0.00135  -0.00420
  30        4YZ         0.00171   0.00006   0.00804  -0.00045   0.03520
  31 3   O  1S         -0.09142  -0.05634  -0.00096  -0.01297  -0.00038
  32        2S          0.19058   0.12087   0.00025   0.03822   0.00357
  33        2PX        -0.01510   0.00133  -0.01573   0.12947   0.00501
  34        2PY         0.29370   0.36980   0.01500   0.15826   0.06613
  35        2PZ        -0.02578  -0.04217   0.16266  -0.01565   0.49517
  36        3S          0.39695   0.21983   0.01259  -0.02041  -0.01683
  37        3PX        -0.01211   0.00119  -0.01660   0.08271   0.00437
  38        3PY         0.12092   0.20111   0.00490   0.11262   0.04943
  39        3PZ        -0.00945  -0.02552   0.09417  -0.01521   0.33670
  40        4XX        -0.00733   0.00191  -0.00095   0.00782   0.00158
  41        4YY        -0.02570  -0.02147  -0.00169  -0.00606  -0.00423
  42        4ZZ        -0.00316   0.00124   0.00065   0.00383   0.00520
  43        4XY         0.00304  -0.00260   0.00177  -0.00669  -0.00048
  44        4XZ        -0.00036   0.00036   0.00198   0.00045  -0.00119
  45        4YZ         0.00226   0.00309  -0.01098   0.00149  -0.02949
  46 4   F  1S         -0.01316   0.01157   0.00019  -0.00035  -0.00031
  47        2S          0.02909  -0.02398   0.00099   0.00713   0.00038
  48        2PX         0.09768  -0.32784   0.02491   0.21740  -0.01539
  49        2PY        -0.15624  -0.02000  -0.05139   0.57625   0.02231
  50        2PZ        -0.01480   0.02293   0.55344   0.04580  -0.32941
  51        3S          0.03668  -0.02901  -0.00590  -0.01290   0.00237
  52        3PX         0.06775  -0.22450   0.01781   0.14970  -0.01226
  53        3PY        -0.10098  -0.01266  -0.03653   0.38283   0.01274
  54        3PZ        -0.01093   0.01696   0.38065   0.03130  -0.23450
  55        4XX        -0.00404   0.01300  -0.00048  -0.00636   0.00073
  56        4YY        -0.00133  -0.00374  -0.00039   0.01016  -0.00033
  57        4ZZ         0.00041  -0.00135   0.00258   0.00343  -0.00085
  58        4XY         0.00843  -0.00027   0.00185  -0.01113   0.00009
  59        4XZ         0.00099  -0.00143  -0.01785  -0.00087   0.00565
  60        4YZ        -0.00066  -0.00012   0.00619   0.00124   0.00057
                          16        17        18        19        20
                           O         V         V         V         V
     Eigenvalues --    -0.33819  -0.08186  -0.01579   0.18917   0.28359
   1 1   F  1S         -0.00983   0.02176   0.04267   0.07350  -0.03908
   2        2S          0.01777  -0.04514  -0.09398  -0.15520   0.08587
   3        2PX         0.02389  -0.11897  -0.25921  -0.14343   0.19155
   4        2PY         0.14706  -0.03098  -0.04371  -0.27037  -0.08029
   5        2PZ         0.00502  -0.21219   0.09365  -0.01522   0.03857
   6        3S          0.07892  -0.16582  -0.32803  -0.71269   0.45970
   7        3PX         0.02461  -0.11972  -0.26163  -0.27492   0.27079
   8        3PY         0.11326  -0.04339  -0.07823  -0.37288  -0.07070
   9        3PZ         0.00536  -0.17668   0.07536  -0.02064   0.04129
  10        4XX        -0.00464   0.00370   0.01327  -0.01070  -0.01807
  11        4YY        -0.00158  -0.00051  -0.00577   0.02138  -0.00177
  12        4ZZ        -0.00193   0.00794   0.00781   0.01559   0.00954
  13        4XY         0.00405  -0.00242  -0.00330   0.00613   0.00122
  14        4XZ        -0.00027   0.01265  -0.00843  -0.00281  -0.00612
  15        4YZ         0.00040   0.00607  -0.00596   0.00236   0.00038
  16 2   C  1S         -0.00279  -0.07306  -0.13049  -0.05488  -0.04237
  17        2S          0.01068   0.14466   0.27455  -0.01463  -0.00748
  18        2PX         0.07564   0.06951   0.22538  -0.69919   0.23632
  19        2PY         0.00825  -0.12311  -0.29277   0.07812   0.40707
  20        2PZ        -0.00255   0.54117  -0.30957  -0.05118  -0.01633
  21        3S         -0.03138   0.52155   0.95423   1.09993   1.29930
  22        3PX         0.10522   0.00739   0.07121  -0.83370   0.33006
  23        3PY        -0.01002  -0.04989  -0.14301   0.23849   1.81268
  24        3PZ         0.00124   0.36498  -0.24632  -0.08697  -0.08920
  25        4XX        -0.00589  -0.01858  -0.03700   0.00444   0.02013
  26        4YY         0.00224  -0.01270  -0.01266  -0.02359  -0.03170
  27        4ZZ        -0.00034   0.01309   0.01958   0.01518   0.01774
  28        4XY         0.03967  -0.00349  -0.00659  -0.01725   0.01553
  29        4XZ        -0.00061   0.00065   0.00044  -0.00871   0.00271
  30        4YZ         0.00020  -0.02161   0.00898   0.00288   0.00763
  31 3   O  1S         -0.00156   0.01298   0.02432   0.04326   0.10557
  32        2S          0.00561  -0.02694  -0.04951  -0.08583  -0.16237
  33        2PX         0.61026  -0.02414  -0.07905   0.26164  -0.08434
  34        2PY        -0.02174   0.06323   0.14941   0.14768   0.24369
  35        2PZ         0.00358  -0.37543   0.17339   0.00964  -0.03198
  36        3S          0.01178  -0.11436  -0.22483  -0.56566  -1.78157
  37        3PX         0.39844  -0.02014  -0.07367   0.32614  -0.12300
  38        3PY        -0.01779   0.08178   0.19565   0.35087   0.89512
  39        3PZ         0.00273  -0.34399   0.16576   0.00110  -0.07297
  40        4XX        -0.00205   0.00209   0.00312   0.00931   0.03858
  41        4YY         0.00267  -0.00276  -0.00263  -0.00625  -0.00030
  42        4ZZ         0.00098   0.00683   0.01145   0.01572   0.04390
  43        4XY        -0.02578  -0.00097  -0.00427   0.02415  -0.01108
  44        4XZ         0.00218   0.00074   0.00018  -0.00423   0.00193
  45        4YZ        -0.00018  -0.00277   0.00647   0.00343   0.00219
  46 4   F  1S          0.00853   0.02159   0.05045  -0.03160   0.00975
  47        2S         -0.01810  -0.04856  -0.11890   0.06923  -0.00712
  48        2PX         0.10617   0.16742   0.36564  -0.14720  -0.03689
  49        2PY        -0.23833  -0.03628  -0.07869   0.09271  -0.20054
  50        2PZ        -0.00354  -0.16635   0.05606   0.03990   0.00738
  51        3S         -0.05893  -0.13186  -0.30923   0.25106  -0.08871
  52        3PX         0.09149   0.15900   0.35170  -0.14731  -0.00975
  53        3PY        -0.16940  -0.04069  -0.09472   0.08471  -0.23079
  54        3PZ        -0.00471  -0.13159   0.04214   0.03004   0.00759
  55        4XX        -0.00442  -0.00050   0.00543  -0.01525  -0.00241
  56        4YY         0.00271  -0.00064  -0.00464  -0.00598   0.00872
  57        4ZZ         0.00094   0.00420   0.00207   0.00598   0.01447
  58        4XY         0.00541   0.00162   0.00114   0.01518  -0.01454
  59        4XZ         0.00047  -0.01050   0.00639   0.00548   0.00196
  60        4YZ        -0.00050   0.00244  -0.00206  -0.00287   0.00334
                          21        22        23        24        25
                           V         V         V         V         V
     Eigenvalues --     0.46831   0.47588   0.49406   0.54545   0.83789
   1 1   F  1S          0.02176  -0.01076  -0.01374  -0.00173   0.00315
   2        2S         -0.00332   0.00311   0.01077  -0.01729   0.06444
   3        2PX         0.25626  -0.08602  -0.07762   0.00381  -0.07257
   4        2PY         0.18688  -0.05542   0.10297   0.00740   0.09989
   5        2PZ        -0.01714  -0.10745   0.03347   0.01706  -0.01563
   6        3S         -0.80802   0.33663   0.26691   0.10208  -0.13143
   7        3PX        -0.20118   0.08495  -0.02545  -0.03019   0.00817
   8        3PY        -0.14433   0.08127   0.18615  -0.08785  -0.06921
   9        3PZ        -0.05802  -0.11112   0.02271   0.00557   0.00572
  10        4XX        -0.08904   0.03131  -0.03008   0.01699   0.04657
  11        4YY        -0.01272   0.00960   0.02920  -0.04357   0.00461
  12        4ZZ         0.05975  -0.02836  -0.00304   0.00427   0.01400
  13        4XY        -0.11171   0.04653   0.02239  -0.02502  -0.01625
  14        4XZ        -0.02612  -0.02789   0.00092   0.00244   0.00524
  15        4YZ        -0.01828  -0.02297   0.00101  -0.00122  -0.00071
  16 2   C  1S          0.03290  -0.00766  -0.01946   0.04434   0.03456
  17        2S         -0.84667   0.16264  -0.41004  -1.07327   0.41664
  18        2PX         0.46993  -0.19761  -0.52366  -0.17494  -0.01855
  19        2PY         0.43567  -0.09247   0.56826  -0.62453   0.25555
  20        2PZ        -0.27884  -0.89320   0.08280   0.03059  -0.02300
  21        3S          1.26731  -0.34103   0.70654   1.73467  -0.03060
  22        3PX        -1.08776   0.50122   1.56844   0.46383  -0.00045
  23        3PY        -0.79509   0.18493  -0.83763   1.08266  -0.08493
  24        3PZ         0.35180   1.27468  -0.14974  -0.08672   0.00222
  25        4XX         0.04173  -0.02402   0.00658  -0.08381  -0.02437
  26        4YY        -0.02225  -0.01732  -0.09398   0.11093   0.25617
  27        4ZZ        -0.04489   0.01692   0.00220  -0.07481  -0.05269
  28        4XY         0.08929  -0.03432  -0.02634  -0.00285  -0.00595
  29        4XZ         0.00917   0.00446   0.00372   0.00112   0.00186
  30        4YZ         0.00580  -0.00749   0.00494  -0.01262  -0.02332
  31 3   O  1S          0.00388  -0.00177   0.01083  -0.00423   0.00766
  32        2S         -0.06673   0.00297  -0.09045   0.04921  -0.53860
  33        2PX         0.05927  -0.03464  -0.15724  -0.04033   0.05334
  34        2PY         0.00216   0.01181   0.13041  -0.43581  -0.66498
  35        2PZ        -0.02032  -0.11059   0.01711   0.02993   0.03420
  36        3S          0.16545   0.04171   0.27036  -0.88155   0.74546
  37        3PX         0.16803  -0.07762  -0.25434  -0.07674  -0.05552
  38        3PY         0.09160  -0.05874   0.05611   0.27176   1.16274
  39        3PZ        -0.04451  -0.15591   0.02078  -0.01442  -0.06689
  40        4XX        -0.01503  -0.00309  -0.03671   0.04653  -0.20372
  41        4YY        -0.02293   0.01882   0.03724  -0.17449  -0.21289
  42        4ZZ        -0.01352  -0.00964  -0.02219   0.06688  -0.19685
  43        4XY        -0.03227   0.01317   0.03009   0.01153   0.00284
  44        4XZ         0.00041   0.00026   0.00176   0.00033  -0.00023
  45        4YZ         0.01427   0.04609  -0.01070   0.01973   0.00035
  46 4   F  1S         -0.00527   0.00341   0.04215   0.01100   0.00263
  47        2S         -0.06928   0.00914  -0.12112  -0.09549   0.12558
  48        2PX         0.02548  -0.02594  -0.12285  -0.09108   0.04772
  49        2PY         0.06471  -0.01833   0.06681  -0.02203   0.10865
  50        2PZ        -0.02486  -0.12153   0.00747   0.00865  -0.01125
  51        3S          0.21007  -0.09417  -0.70841  -0.13800  -0.21079
  52        3PX         0.04702  -0.00055   0.37829   0.13754  -0.04247
  53        3PY         0.10344  -0.03733  -0.14277  -0.16843  -0.05322
  54        3PZ        -0.02793  -0.10861  -0.01575  -0.00352   0.00736
  55        4XX        -0.06235   0.00829  -0.12341  -0.07342   0.08464
  56        4YY        -0.01534   0.00301   0.00226  -0.04723   0.02958
  57        4ZZ        -0.02817   0.00624   0.02787  -0.00505   0.04216
  58        4XY        -0.00629   0.00414   0.05480   0.06132   0.02591
  59        4XZ         0.00659   0.01391   0.00855   0.00376  -0.00590
  60        4YZ        -0.00292  -0.00792  -0.00177  -0.00223  -0.00104
                          26        27        28        29        30
                           V         V         V         V         V
     Eigenvalues --     0.93222   0.93719   1.03987   1.07796   1.11775
   1 1   F  1S          0.00077  -0.01392  -0.03843   0.00748   0.01403
   2        2S          0.06231  -0.56424  -0.79689   0.14264   0.26896
   3        2PX        -0.05203   0.17390   0.46602   0.02452  -0.02149
   4        2PY        -0.00042   0.23261   0.13086  -0.12708  -0.42152
   5        2PZ         0.18624  -0.02403   0.10230  -0.56021   0.25928
   6        3S         -0.08220   0.80864   1.65336  -0.32898  -0.68069
   7        3PX         0.06646  -0.28811  -0.67656   0.02258   0.15412
   8        3PY         0.01816  -0.35450  -0.25048   0.14469   0.51273
   9        3PZ        -0.12188   0.01505  -0.11991   0.60071  -0.28489
  10        4XX         0.03515  -0.24806  -0.36360   0.06776   0.12242
  11        4YY         0.02980  -0.29525  -0.34615   0.06225   0.11490
  12        4ZZ         0.01686  -0.21507  -0.42266   0.06958   0.15004
  13        4XY        -0.00552  -0.00840   0.02386  -0.01625  -0.04947
  14        4XZ        -0.02729   0.00040   0.00256   0.02935  -0.01461
  15        4YZ         0.02537   0.01533  -0.01107   0.06698  -0.02650
  16 2   C  1S         -0.00351   0.01095   0.02439   0.00456   0.00342
  17        2S         -0.03071   0.13923   0.42106   0.10810   0.05605
  18        2PX         0.01353  -0.10186  -0.13397   0.11778   0.25007
  19        2PY         0.01507  -0.05558  -0.14722  -0.00289   0.04872
  20        2PZ         0.06550   0.00034  -0.01522  -0.02261   0.01803
  21        3S          0.06603  -0.11012  -0.52272  -0.26299  -0.13636
  22        3PX         0.10909  -0.52180   0.28888  -0.33308  -0.71626
  23        3PY         0.01604  -0.02939   0.08891  -0.03021  -0.03970
  24        3PZ        -0.40829  -0.08359   0.01979  -0.05475   0.00612
  25        4XX        -0.00958   0.05870   0.20854   0.03623  -0.00754
  26        4YY        -0.00700   0.02802   0.06746   0.01360   0.04338
  27        4ZZ         0.00633  -0.01547  -0.11623  -0.03976  -0.04300
  28        4XY        -0.00801   0.04344   0.12559  -0.05925  -0.20392
  29        4XZ        -0.01382  -0.01994   0.06661  -0.23479   0.10563
  30        4YZ         0.01158   0.00376  -0.00697   0.01068  -0.02520
  31 3   O  1S          0.00213  -0.00106  -0.00246  -0.00232   0.00177
  32        2S          0.02571  -0.01699   0.02074  -0.00515   0.09068
  33        2PX         0.15723  -0.75255   0.23247  -0.07410  -0.36594
  34        2PY        -0.03923  -0.05312  -0.03777  -0.02943  -0.06214
  35        2PZ        -0.90162  -0.18210   0.01219  -0.04728   0.00163
  36        3S         -0.09370   0.06971   0.05856   0.09425  -0.12628
  37        3PX        -0.21252   1.02168  -0.40458   0.18607   0.73883
  38        3PY         0.06917   0.06718   0.04513   0.02033   0.13963
  39        3PZ         1.15221   0.23513  -0.02110   0.07633  -0.00159
  40        4XX         0.00537  -0.00152   0.03265   0.01139   0.03087
  41        4YY         0.01380  -0.00987   0.00281   0.00873   0.04339
  42        4ZZ         0.01253  -0.01737  -0.04994  -0.03584  -0.01865
  43        4XY        -0.00443   0.02528  -0.04221   0.00955   0.14720
  44        4XZ         0.00010  -0.01097   0.02131  -0.08043   0.02909
  45        4YZ         0.02318   0.00634  -0.00327   0.00749  -0.00073
  46 4   F  1S         -0.00125   0.00416  -0.03406  -0.03914  -0.04061
  47        2S         -0.06952   0.27601  -0.77059  -0.73157  -0.71541
  48        2PX         0.00581   0.04026  -0.32590  -0.22045  -0.23665
  49        2PY         0.08130  -0.21902   0.00773   0.09307   0.23044
  50        2PZ         0.09245   0.06996  -0.13348   0.50261  -0.27409
  51        3S          0.07632  -0.31168   1.44655   1.54206   1.61506
  52        3PX         0.01773  -0.11322   0.34848   0.21307   0.22436
  53        3PY        -0.08874   0.24928  -0.03800  -0.07032  -0.19509
  54        3PZ        -0.04074  -0.04565   0.12741  -0.50986   0.29978
  55        4XX        -0.02477   0.11443  -0.34830  -0.29468  -0.25121
  56        4YY        -0.04409   0.16701  -0.33438  -0.32633  -0.34026
  57        4ZZ        -0.02575   0.08163  -0.34243  -0.35924  -0.35767
  58        4XY         0.01440  -0.02818  -0.02846  -0.01952  -0.00536
  59        4XZ         0.01953   0.01192  -0.02706   0.07013  -0.04707
  60        4YZ         0.02588  -0.00037   0.01593  -0.04284   0.01800
                          31        32        33        34        35
                           V         V         V         V         V
     Eigenvalues --     1.21899   1.25781   1.26019   1.33178   1.35510
   1 1   F  1S         -0.01462  -0.00996   0.00414  -0.02317  -0.01396
   2        2S         -0.16772  -0.06627  -0.06022  -0.30456  -0.18069
   3        2PX        -0.35925   0.32007  -0.18253   0.04017   0.00087
   4        2PY         0.32782  -0.28822  -0.07344  -0.34882  -0.09494
   5        2PZ        -0.12603  -0.44982  -0.27711   0.28504  -0.16203
   6        3S          0.41951   0.25379  -0.01998   0.72798   0.43516
   7        3PX         0.57714  -0.42885   0.24062  -0.00046   0.03375
   8        3PY        -0.35278   0.42807   0.13277   0.63465   0.20289
   9        3PZ         0.17372   0.64351   0.39586  -0.47664   0.35590
  10        4XX        -0.19495   0.02556  -0.04983  -0.12008  -0.00639
  11        4YY         0.15448  -0.03344  -0.03789  -0.01772  -0.03627
  12        4ZZ        -0.16584  -0.11669   0.08567  -0.24400  -0.18223
  13        4XY         0.00486  -0.00920  -0.04617  -0.11349  -0.05282
  14        4XZ         0.00120  -0.01019   0.02792   0.16738  -0.36429
  15        4YZ        -0.02162  -0.06761  -0.03964   0.08111  -0.17209
  16 2   C  1S         -0.01129  -0.00490  -0.00358  -0.00546  -0.00248
  17        2S          0.05046  -0.05314  -0.04928   0.01698  -0.00128
  18        2PX         0.12244  -0.12120   0.05008  -0.06034  -0.00481
  19        2PY        -0.15508   0.00166   0.09954   0.03020   0.03654
  20        2PZ         0.04825   0.11392   0.08936  -0.05978   0.01907
  21        3S         -1.84845  -0.46646   0.35079  -1.63063  -0.44544
  22        3PX        -0.37737   0.34485  -0.05187   0.13462   0.08172
  23        3PY        -0.63531  -0.37385  -0.09327  -1.08158  -0.24270
  24        3PZ        -0.07500  -0.48489  -0.42295   0.41731  -0.02661
  25        4XX         0.20057   0.01102  -0.06875   0.10393  -0.03120
  26        4YY        -0.17467  -0.02267   0.02977  -0.00742   0.07657
  27        4ZZ        -0.11210  -0.04447   0.02170  -0.23913  -0.09268
  28        4XY        -0.11817   0.03847  -0.02189  -0.06358  -0.10941
  29        4XZ         0.04153   0.09302   0.02721  -0.09114   0.30913
  30        4YZ        -0.03666  -0.15236  -0.20417  -0.11259   0.45500
  31 3   O  1S         -0.06309  -0.01939   0.01305  -0.05181  -0.01072
  32        2S         -1.00836  -0.30624   0.29637  -0.66544  -0.13332
  33        2PX        -0.01349  -0.02328   0.09830   0.06338   0.04927
  34        2PY         0.20454   0.06227  -0.10999   0.08560   0.01794
  35        2PZ        -0.03589  -0.11566  -0.08445   0.04796  -0.07743
  36        3S          2.89054   0.91745  -0.64257   2.38279   0.50852
  37        3PX         0.14970  -0.05001  -0.12991  -0.10032  -0.04599
  38        3PY        -1.11864  -0.29962   0.35353  -0.73262  -0.15443
  39        3PZ         0.15144   0.36160   0.29113  -0.06952  -0.05486
  40        4XX        -0.18395  -0.04121   0.09011   0.00114   0.01290
  41        4YY        -0.36432  -0.09864   0.14953  -0.20511  -0.06999
  42        4ZZ        -0.29958  -0.12354  -0.01059  -0.38524  -0.06358
  43        4XY         0.04355   0.00885  -0.04061   0.00215   0.06065
  44        4XZ         0.00535   0.02406   0.01023  -0.03147   0.09011
  45        4YZ         0.03142   0.13352   0.14302   0.01974  -0.30348
  46 4   F  1S         -0.02798   0.00957   0.00026  -0.01407  -0.00457
  47        2S         -0.40894   0.05625   0.04418  -0.33614  -0.11420
  48        2PX        -0.06957   0.41897  -0.30007   0.27831   0.05485
  49        2PY         0.05799   0.19294  -0.59891  -0.40510  -0.22638
  50        2PZ        -0.20869  -0.33531  -0.32196   0.25659   0.07059
  51        3S          1.07451  -0.24900  -0.11144   0.65825   0.21169
  52        3PX         0.00423  -0.48439   0.38170  -0.36355  -0.06854
  53        3PY         0.01363  -0.22316   0.74656   0.61908   0.32079
  54        3PZ         0.25820   0.44732   0.42909  -0.36960  -0.09620
  55        4XX        -0.13165  -0.06584   0.05994  -0.15466   0.00060
  56        4YY        -0.09431   0.11563  -0.06306  -0.05509  -0.08586
  57        4ZZ        -0.30908   0.07242   0.03558  -0.16653  -0.04433
  58        4XY        -0.05938   0.00510   0.07209   0.09245   0.10923
  59        4XZ        -0.02312  -0.01507  -0.00715  -0.05796  -0.03861
  60        4YZ        -0.00251  -0.01114  -0.01806  -0.01357   0.09792
                          36        37        38        39        40
                           V         V         V         V         V
     Eigenvalues --     1.38396   1.52802   1.60541   1.72662   1.74921
   1 1   F  1S         -0.00220   0.00224  -0.00168   0.01679  -0.00032
   2        2S         -0.04749  -0.29692   0.44049   0.35404  -0.04904
   3        2PX        -0.00395  -0.15164   0.34395   0.18434  -0.01099
   4        2PY        -0.05112  -0.24985   0.13784  -0.16201  -0.01040
   5        2PZ         0.01263   0.02003   0.02547   0.03981  -0.00589
   6        3S          0.09593   0.42916  -0.64190  -0.84261   0.09776
   7        3PX         0.00181   0.07181  -0.40008  -0.38875   0.01365
   8        3PY         0.09764   0.46505   0.01909   0.30304   0.02591
   9        3PZ        -0.05299  -0.03984  -0.03433  -0.07282   0.01088
  10        4XX         0.04399   0.18941   0.40858  -0.23504   0.12177
  11        4YY        -0.06799  -0.41901   0.06925  -0.08108  -0.00009
  12        4ZZ        -0.02688   0.00077  -0.09945   0.65514  -0.15304
  13        4XY        -0.05182  -0.14280  -0.07046   0.48820  -0.13401
  14        4XZ        -0.00216   0.01964   0.11494  -0.17839  -0.50987
  15        4YZ         0.23293  -0.10840  -0.04783   0.07296   0.74604
  16 2   C  1S         -0.00246  -0.02117   0.00221   0.02787  -0.00350
  17        2S          0.00538   0.17355   0.01399   0.04261  -0.01047
  18        2PX        -0.03513   0.01658   0.06345  -0.00930  -0.01207
  19        2PY         0.02408  -0.01269   0.10607  -0.06943   0.01573
  20        2PZ        -0.03536  -0.00120   0.00602   0.01879   0.02670
  21        3S         -0.22716  -1.43767  -0.46113  -1.10326   0.03199
  22        3PX        -0.02672  -0.03493   0.18118  -0.05133   0.08940
  23        3PY        -0.09334  -0.99968  -0.70608  -1.51299  -0.01095
  24        3PZ        -0.05592   0.10779   0.02487   0.07785  -0.00989
  25        4XX        -0.02936  -0.17667  -0.22359   0.18106   0.00203
  26        4YY         0.05097  -0.00220   0.12721  -0.37557   0.01188
  27        4ZZ        -0.05713   0.12584   0.16391   0.26842  -0.01155
  28        4XY         0.03374   0.35496  -0.24730   0.01155  -0.00064
  29        4XZ        -0.47481   0.04926  -0.04759  -0.01039   0.02438
  30        4YZ         0.33083   0.02809  -0.03548   0.06101  -0.03122
  31 3   O  1S         -0.00424  -0.03998  -0.01362  -0.04294   0.00168
  32        2S         -0.07885  -0.78502  -0.61063  -0.53387  -0.03008
  33        2PX         0.00054  -0.08067   0.05707   0.00241  -0.00033
  34        2PY         0.02334   0.18550   0.27123  -0.16069   0.02711
  35        2PZ        -0.04443  -0.02067  -0.01542  -0.00280   0.04920
  36        3S          0.24807   2.37643   1.47288   2.28686   0.02569
  37        3PX        -0.01617   0.01970  -0.05565   0.00769  -0.01922
  38        3PY        -0.08968  -0.83363  -0.57861  -0.63226  -0.02380
  39        3PZ        -0.04196   0.05253   0.05289   0.06693  -0.05449
  40        4XX         0.00590  -0.19733  -0.39109  -0.03652  -0.07529
  41        4YY        -0.04412  -0.25130  -0.22038  -0.25595   0.01379
  42        4ZZ        -0.02311  -0.10055   0.24826   0.00070   0.05583
  43        4XY        -0.05571  -0.28693   0.23149  -0.05903  -0.03954
  44        4XZ        -0.15542   0.08828  -0.08170  -0.06145  -0.03496
  45        4YZ        -0.21713  -0.01666   0.08797   0.00315   0.20742
  46 4   F  1S         -0.00885  -0.02450   0.02045   0.01650   0.00181
  47        2S         -0.13475   0.24255   0.30049   0.05833   0.11520
  48        2PX         0.05934  -0.33285  -0.14478  -0.01472  -0.04512
  49        2PY        -0.05339   0.07768  -0.07728  -0.11685   0.01034
  50        2PZ        -0.39524   0.04460   0.00676   0.01190  -0.01583
  51        3S          0.29652  -0.14256  -0.69811  -0.24352  -0.22276
  52        3PX        -0.09838   0.28553   0.29310   0.11759   0.08052
  53        3PY         0.08905   0.03956   0.15626   0.29167  -0.02687
  54        3PZ         0.56916  -0.06251  -0.01341  -0.02864   0.01007
  55        4XX        -0.04076  -0.07450   0.42593   0.21233   0.02564
  56        4YY        -0.02614   0.27198  -0.14940  -0.04099   0.04467
  57        4ZZ        -0.10348  -0.13424   0.09177  -0.00470   0.01439
  58        4XY         0.02149  -0.04925   0.24234   0.05492  -0.00581
  59        4XZ         0.37754  -0.02305   0.00501  -0.04399  -0.27656
  60        4YZ        -0.13220   0.00852  -0.09200  -0.06698   0.06074
                          41        42        43        44        45
                           V         V         V         V         V
     Eigenvalues --     1.76881   1.78365   1.81724   1.82435   1.83831
   1 1   F  1S          0.00028  -0.01083  -0.04127   0.00568   0.02496
   2        2S          0.02122   0.00330  -0.92072   0.19247   0.19111
   3        2PX        -0.06214  -0.07023  -0.05762   0.03103   0.01598
   4        2PY         0.10276   0.17577  -0.14882   0.01775  -0.14791
   5        2PZ         0.04480  -0.00305   0.00188  -0.01762   0.00077
   6        3S         -0.05339   0.08482   2.18961  -0.42501  -0.67959
   7        3PX         0.15229   0.26853   0.36834  -0.10733  -0.19659
   8        3PY        -0.19757  -0.31401   0.45682  -0.06145   0.07813
   9        3PZ        -0.05861  -0.00174   0.01234   0.02455  -0.00861
  10        4XX         0.07253  -0.09126  -0.54682   0.10553  -0.13753
  11        4YY        -0.12283  -0.16637  -0.08175  -0.05027   0.58534
  12        4ZZ         0.07368   0.19745  -0.15940   0.08446  -0.20209
  13        4XY         0.03730   0.13277  -0.21943   0.06365   0.05034
  14        4XZ        -0.13134   0.04175   0.03009   0.06877   0.00922
  15        4YZ        -0.19610   0.13631  -0.02337   0.04314  -0.08072
  16 2   C  1S         -0.00200   0.00050   0.02690  -0.00493  -0.00442
  17        2S          0.15084   0.33846   0.29300  -0.08039  -0.18458
  18        2PX         0.05606   0.14785   0.01228  -0.01290  -0.07268
  19        2PY        -0.00781  -0.02526  -0.10096   0.03965  -0.06503
  20        2PZ         0.03308  -0.02614  -0.02098  -0.00219   0.01349
  21        3S         -0.21607  -0.71427  -1.69856   0.32568   0.83685
  22        3PX        -0.49627  -0.93369   0.53867  -0.02552  -0.05125
  23        3PY         0.41739   0.72880  -0.08672  -0.07310  -0.06436
  24        3PZ         0.00467   0.05365   0.12006  -0.02741  -0.05644
  25        4XX        -0.15242  -0.30169  -0.01680   0.03121   0.14485
  26        4YY         0.09319   0.15820  -0.17833   0.02608  -0.04903
  27        4ZZ         0.00979   0.04584   0.22681  -0.05593  -0.09777
  28        4XY         0.03913   0.05796  -0.08946   0.00457   0.07665
  29        4XZ         0.02711   0.02871  -0.02120   0.01834   0.00753
  30        4YZ        -0.04060  -0.02675   0.02478   0.00237   0.01574
  31 3   O  1S          0.00640   0.00849  -0.02351   0.00474  -0.00362
  32        2S          0.05120   0.02177  -0.17277  -0.01289   0.31279
  33        2PX        -0.00770  -0.02860   0.02442   0.00860  -0.08113
  34        2PY         0.06142   0.11673  -0.12263   0.03512  -0.13904
  35        2PZ        -0.00270   0.01545   0.01633   0.03360  -0.00740
  36        3S         -0.31734  -0.34707   0.95061  -0.06803  -0.59107
  37        3PX         0.11381   0.22952  -0.14288  -0.00523   0.11275
  38        3PY         0.05266   0.01003  -0.28221   0.01181   0.29306
  39        3PZ        -0.00993  -0.05165  -0.01433  -0.04420   0.01317
  40        4XX         0.00004  -0.19519  -0.53327   0.07853  -0.33545
  41        4YY         0.05419   0.06898  -0.07899   0.00236   0.09903
  42        4ZZ        -0.03506   0.12673   0.49411  -0.06652   0.31928
  43        4XY        -0.01172   0.05979  -0.05292   0.02648  -0.36687
  44        4XZ        -0.82179   0.36640  -0.11007  -0.21063  -0.06010
  45        4YZ        -0.00058   0.03227   0.00554   0.08968  -0.00653
  46 4   F  1S         -0.03847  -0.06982  -0.00785   0.00749   0.01848
  47        2S         -0.47791  -1.02921  -0.24770   0.10700   0.18827
  48        2PX         0.07040   0.18479   0.07800  -0.01838  -0.01292
  49        2PY        -0.00143  -0.02284  -0.03672   0.00339   0.00071
  50        2PZ        -0.03504  -0.00768   0.01209  -0.01546  -0.00414
  51        3S          1.23337   2.53388   0.48255  -0.26043  -0.51672
  52        3PX        -0.30150  -0.65666  -0.20138   0.07481   0.12731
  53        3PY         0.06019   0.15749   0.06037  -0.01311  -0.02724
  54        3PZ         0.05318   0.03591  -0.02831   0.02051   0.00564
  55        4XX        -0.39690  -0.60479  -0.28841   0.15665   0.33257
  56        4YY        -0.00761  -0.10815  -0.24002   0.11465   0.38469
  57        4ZZ        -0.17051  -0.42132   0.32006  -0.15255  -0.47167
  58        4XY         0.14923   0.52762  -0.14467   0.09245   0.24408
  59        4XZ        -0.26580   0.05015   0.07556   0.24294  -0.04435
  60        4YZ        -0.10837   0.02953   0.21255   0.89505  -0.06149
                          46        47        48        49        50
                           V         V         V         V         V
     Eigenvalues --     1.89690   1.93683   1.97219   2.09963   2.36678
   1 1   F  1S         -0.05894  -0.04566  -0.03668  -0.01186  -0.00172
   2        2S         -0.89032  -0.78141  -0.34581   0.05255   0.11457
   3        2PX         0.01828  -0.01021   0.12062   0.14965  -0.00828
   4        2PY         0.01712   0.02360   0.02319   0.02055   0.06938
   5        2PZ        -0.05057  -0.02524   0.12513  -0.11042   0.07316
   6        3S          2.48471   2.10557   1.17489   0.10423  -0.22753
   7        3PX         0.30516   0.35382   0.07931  -0.15254   0.04870
   8        3PY         0.23102   0.14941   0.21573   0.10928  -0.19089
   9        3PZ         0.12339   0.07525  -0.22950   0.26598  -0.22210
  10        4XX        -0.38339  -0.51001  -0.20851  -0.11874   0.16116
  11        4YY        -0.64530  -0.12549   0.07316   0.23076  -0.08888
  12        4ZZ         0.17277  -0.05370  -0.23667  -0.11937  -0.04586
  13        4XY        -0.15394  -0.11606  -0.18026  -0.14382  -0.09310
  14        4XZ         0.03954   0.01321  -0.35982   0.37563  -0.19598
  15        4YZ         0.00587   0.01987  -0.15902   0.19294  -0.41512
  16 2   C  1S          0.00476  -0.00548   0.03596   0.02704   0.03765
  17        2S         -0.16527   0.11438   0.22165   0.12677   0.00231
  18        2PX        -0.17316  -0.05479   0.07017   0.11403  -0.19658
  19        2PY         0.06722   0.03344  -0.11346  -0.09975   0.08894
  20        2PZ        -0.03407  -0.02210   0.16373  -0.18015   0.14927
  21        3S          0.20366  -0.20123  -0.97761  -0.32210  -0.19624
  22        3PX         1.55898   0.80558   0.54953   0.30018  -0.43888
  23        3PY         0.86655   1.08182  -0.09455  -0.33538   0.17903
  24        3PZ        -0.05200   0.00244   0.39231  -0.34803   0.14589
  25        4XX         0.02291  -0.25755  -0.16129  -0.13070   0.06569
  26        4YY         0.17851   0.24944  -0.23607  -0.31423  -0.05453
  27        4ZZ        -0.13663   0.02961   0.55659   0.62835   0.15292
  28        4XY        -0.34770  -0.16936  -0.13247  -0.03310  -0.02471
  29        4XZ        -0.05872  -0.02226  -0.00637  -0.07331  -0.67153
  30        4YZ        -0.02094  -0.03629  -0.03800   0.08649   0.39947
  31 3   O  1S          0.01582   0.02360  -0.01893  -0.01172  -0.00101
  32        2S          0.20803   0.03318  -0.01372   0.06890   0.13043
  33        2PX         0.22337  -0.05321   0.07581   0.03810  -0.02670
  34        2PY         0.06958   0.17960  -0.15701  -0.20466  -0.07672
  35        2PZ        -0.00966   0.00630   0.09253  -0.06183   0.03625
  36        3S         -0.97083  -0.80186   0.53097   0.30596  -0.21542
  37        3PX        -0.60339  -0.06654  -0.21919  -0.13677   0.16555
  38        3PY         0.24576   0.11364  -0.13098   0.01019   0.10869
  39        3PZ        -0.00997  -0.04887  -0.20604   0.23810  -0.23289
  40        4XX        -0.09722   0.32212   0.21797   0.26431   0.05361
  41        4YY         0.08063  -0.01183   0.00142  -0.09215   0.00005
  42        4ZZ         0.10743  -0.24929  -0.25902  -0.12816  -0.01881
  43        4XY         0.22879  -0.40290   0.14725   0.17341  -0.13874
  44        4XZ         0.02301  -0.03010  -0.02161   0.02210   0.23270
  45        4YZ        -0.05329  -0.01120   0.32116  -0.39344   0.50632
  46 4   F  1S          0.05141  -0.00502  -0.00538   0.00104   0.00105
  47        2S          0.44608   0.21265   0.09505   0.24332  -0.40739
  48        2PX         0.07339   0.00573  -0.04921  -0.11165   0.11198
  49        2PY         0.06540   0.27026   0.02350   0.00800  -0.03738
  50        2PZ         0.00150  -0.00107   0.11873  -0.10126  -0.08584
  51        3S         -1.41755  -0.36827  -0.15331  -0.47886   0.80331
  52        3PX         0.10815  -0.05358   0.04606   0.22294  -0.31095
  53        3PY        -0.33554  -0.51526  -0.03500  -0.00621   0.11183
  54        3PZ        -0.01911  -0.00124  -0.22567   0.20535   0.17830
  55        4XX         0.40588   0.40631  -0.08912  -0.15037   0.03806
  56        4YY         0.52600  -0.45861   0.29070   0.28532  -0.10899
  57        4ZZ        -0.31766   0.13921  -0.18647   0.00021  -0.06984
  58        4XY        -0.13754   0.40871   0.07683   0.11429  -0.05334
  59        4XZ        -0.14256  -0.06243   0.48548  -0.44956  -0.46575
  60        4YZ        -0.05051   0.00942  -0.13594   0.14610   0.18315
                          51        52        53        54        55
                           V         V         V         V         V
     Eigenvalues --     2.54330   2.55662   2.66082   2.82436   2.96493
   1 1   F  1S         -0.01604  -0.00531  -0.04726   0.01664   0.01511
   2        2S          0.10646   0.35737   0.72151  -0.11613  -0.88892
   3        2PX         0.13668   0.00255   0.21079  -0.08549  -0.07403
   4        2PY        -0.04428   0.15076   0.10206  -0.05195  -0.07307
   5        2PZ         0.06420   0.03423   0.00407  -0.00251   0.00002
   6        3S         -0.01923  -0.73619  -1.15262   0.07730   1.87301
   7        3PX        -0.22850  -0.00364  -0.54186  -0.05494   1.03101
   8        3PY         0.31118  -0.50904  -0.20545  -0.03090   0.85914
   9        3PZ        -0.24813  -0.13269   0.05034  -0.02989   0.07356
  10        4XX        -0.27312   0.28714  -0.38125  -0.01376   0.44257
  11        4YY         0.26947  -0.24866   0.02516  -0.04911   0.28021
  12        4ZZ        -0.04428  -0.00583   0.10237   0.08528  -0.39158
  13        4XY         0.24391  -0.29749  -0.11469  -0.22716   0.89256
  14        4XZ        -0.49357  -0.25938   0.19004  -0.04026   0.09106
  15        4YZ        -0.26167  -0.09158   0.13733  -0.02518   0.09607
  16 2   C  1S         -0.06007   0.08071   0.01969   0.02675   0.12045
  17        2S         -0.03190  -0.00523  -0.17260  -0.85088  -1.44637
  18        2PX         0.21681  -0.48513  -0.40540  -0.19021   0.59738
  19        2PY        -0.33913   0.17334  -0.55016  -0.97554   0.54417
  20        2PZ         0.02428  -0.07196   0.00864   0.06269   0.07910
  21        3S         -0.06740  -0.25029  -0.80333  -1.37664  -1.70739
  22        3PX         0.46531  -1.06004  -0.87735   0.06155   0.18047
  23        3PY        -0.70806   0.40865  -0.95291  -0.49297   0.04169
  24        3PZ        -0.00045  -0.07077   0.02446   0.07488   0.09455
  25        4XX        -0.22557   0.07802  -0.31135   0.37131  -0.55493
  26        4YY         0.17468  -0.05785   0.21059  -0.66955   0.53504
  27        4ZZ        -0.26163   0.41693   0.21587   0.42571   0.88301
  28        4XY        -0.13556  -0.02028  -0.31395   0.59278  -0.34400
  29        4XZ        -0.56483  -0.02270   0.26826  -0.01224  -0.03806
  30        4YZ        -0.52037  -0.66963   0.31390   0.03747  -0.04250
  31 3   O  1S         -0.00405   0.00110  -0.01295  -0.03567  -0.02306
  32        2S         -0.48189   0.21996  -0.61002  -0.59150  -0.28768
  33        2PX         0.01465  -0.04426  -0.02483  -0.00949   0.01446
  34        2PY         0.17133  -0.05611   0.10539  -0.16469   0.11344
  35        2PZ        -0.01412   0.00887  -0.02351   0.01846  -0.00487
  36        3S          1.13370  -0.51867   1.76010   2.12575   0.89609
  37        3PX        -0.13162   0.39053   0.40410  -0.15104  -0.03306
  38        3PY        -0.54889   0.29155  -0.84424  -1.34721  -0.34892
  39        3PZ         0.19640   0.19919   0.00908   0.08721   0.00457
  40        4XX        -0.17682   0.09942  -0.20848  -0.54260  -0.06837
  41        4YY         0.21413  -0.23968   0.46654   1.17118  -0.00379
  42        4ZZ        -0.11494   0.14198  -0.30653  -0.52555  -0.15482
  43        4XY         0.07605  -0.35223  -0.51175   0.34571  -0.03418
  44        4XZ         0.13547   0.06030  -0.00386  -0.02849   0.00367
  45        4YZ        -0.41749  -0.55392   0.13351  -0.16113  -0.01705
  46 4   F  1S         -0.01175   0.01063  -0.01469  -0.00919  -0.00912
  47        2S          0.53059  -0.82839  -0.33530  -0.22669  -0.45364
  48        2PX        -0.16442   0.20543   0.00721   0.08291   0.10318
  49        2PY         0.00196  -0.07090  -0.12573   0.02484  -0.05620
  50        2PZ        -0.01343  -0.01103  -0.00333  -0.00106  -0.00200
  51        3S         -0.96255   1.60609   0.85677   0.49810   0.93221
  52        3PX         0.50271  -0.69750  -0.16396  -0.30679  -0.48807
  53        3PY        -0.02444   0.26200   0.45784   0.00855   0.22631
  54        3PZ         0.02724   0.04404   0.01371   0.00614   0.01381
  55        4XX        -0.30364   0.27382  -0.19223   0.32433   0.17064
  56        4YY         0.16128  -0.15074   0.09581  -0.31348  -0.08687
  57        4ZZ         0.17896  -0.23495  -0.09837  -0.13083  -0.21536
  58        4XY        -0.02115  -0.18455  -0.44260   0.05821  -0.32586
  59        4XZ        -0.08714   0.05399   0.02518  -0.03402  -0.03530
  60        4YZ         0.14996   0.05093   0.00181   0.00213   0.02971
                          56        57        58        59        60
                           V         V         V         V         V
     Eigenvalues --     3.01639   3.68474   4.02686   4.20144   4.58166
   1 1   F  1S          0.00716  -0.11937  -0.18625   0.19469  -0.70007
   2        2S          0.28007  -0.31297  -0.60015   0.49110  -2.73627
   3        2PX        -0.01000   0.00246  -0.14702   0.11547  -0.24980
   4        2PY        -0.05286  -0.03986   0.02907   0.12142  -0.18817
   5        2PZ         0.00036   0.01368   0.00270   0.01841  -0.03011
   6        3S         -0.73966   1.52083   2.44739  -2.28947  10.57900
   7        3PX        -0.61617   0.13783   0.52558   0.34775   1.47149
   8        3PY        -0.14172   0.30505  -0.19215   0.07357   1.10035
   9        3PZ        -0.05633  -0.03441  -0.00802   0.00562   0.14523
  10        4XX        -0.71534  -0.44385  -0.59054   1.14827  -2.46070
  11        4YY         0.39636  -0.46760  -0.86764   0.85056  -2.70181
  12        4ZZ         0.19589  -0.42823  -0.78365   0.68023  -3.00853
  13        4XY        -0.27150   0.11302  -0.00976   0.30008   0.44147
  14        4XZ        -0.09404  -0.01284   0.01297   0.05416   0.05062
  15        4YZ        -0.01317   0.01532  -0.02201   0.03156   0.03874
  16 2   C  1S          0.03302  -0.01326   0.11406  -0.38839  -0.18801
  17        2S          0.57475   0.02835  -0.48037   2.60504   0.70121
  18        2PX        -0.57269   0.02493  -0.09396   0.09047   0.40450
  19        2PY         0.24325   0.02001   0.17319  -0.00759   0.17511
  20        2PZ        -0.03645   0.01273   0.00295   0.06585   0.05245
  21        3S          0.18547  -2.59817  -0.83178  -0.13641  -1.11483
  22        3PX        -0.22099  -0.08469  -0.83272  -0.93914   2.25069
  23        3PY         0.02031  -1.13914   1.35315  -0.18199   1.29068
  24        3PZ         0.00434   0.16507   0.07010   0.03053   0.11982
  25        4XX        -0.59986  -0.16454   0.33451  -2.10064  -0.88203
  26        4YY         0.83555   0.03082   0.28722  -2.03180  -0.87482
  27        4ZZ        -0.07629   0.15317   0.48083  -1.30257  -0.44287
  28        4XY         1.01007   0.01252   0.02982  -0.17913  -0.08706
  29        4XZ         0.01821  -0.00692   0.02806   0.01764  -0.05880
  30        4YZ         0.00643   0.00025  -0.02932  -0.00668  -0.01351
  31 3   O  1S          0.02005  -0.49465   0.18366  -0.00204   0.06862
  32        2S          0.04336  -0.16989   0.25203  -0.09791   0.11282
  33        2PX        -0.02540  -0.00182  -0.01322  -0.01628   0.07623
  34        2PY         0.22409   0.21084  -0.11276  -0.20657  -0.14613
  35        2PZ        -0.02175  -0.01097   0.02090   0.01492   0.02440
  36        3S         -0.54059   5.41494  -2.37752   0.51591  -0.99690
  37        3PX        -0.15901   0.01834   0.19634   0.27713  -0.64751
  38        3PY         0.46902  -1.22921   0.61853  -0.51110   0.01064
  39        3PZ        -0.04429   0.06102  -0.09152   0.04267  -0.06689
  40        4XX         0.24848  -1.72784   0.59919  -0.03999   0.18791
  41        4YY        -0.56546  -1.40363   0.44331   0.44109   0.42078
  42        4ZZ         0.20047  -1.68354   0.72638  -0.06820   0.22125
  43        4XY         0.47563   0.00260  -0.05154  -0.12493   0.17968
  44        4XZ        -0.04053   0.00114   0.01095   0.01955  -0.03352
  45        4YZ         0.10072  -0.01699   0.02095  -0.05847  -0.00821
  46 4   F  1S         -0.02796  -0.16863  -0.58497  -0.20303   0.18052
  47        2S         -0.44274  -0.43064  -1.70080  -0.90964   0.54160
  48        2PX         0.08494   0.03556   0.26363   0.15343  -0.00611
  49        2PY        -0.06120  -0.03700  -0.05906  -0.08685   0.11739
  50        2PZ        -0.00521   0.00584  -0.01275  -0.01465   0.01973
  51        3S          0.96427   2.06421   7.31986   3.10121  -2.47983
  52        3PX        -0.53676  -0.24951  -0.92341  -0.72280  -0.03059
  53        3PY         0.27671   0.22321   0.18317   0.40002  -0.45323
  54        3PZ         0.03727  -0.01283   0.04341   0.05707  -0.06291
  55        4XX         0.34739  -0.56193  -2.12756  -0.45052   0.93642
  56        4YY        -0.24674  -0.73680  -2.40193  -0.86631   0.60512
  57        4ZZ        -0.36027  -0.62576  -2.42930  -0.99540   0.66959
  58        4XY        -0.35863  -0.09967  -0.06472  -0.30791   0.03908
  59        4XZ        -0.06847   0.00267  -0.01249  -0.04229  -0.00781
  60        4YZ         0.02465   0.01612  -0.00773   0.02678  -0.02151
     Density Matrix:
                           1         2         3         4         5
   1 1   F  1S          2.08522
   2        2S         -0.21575   0.57401
   3        2PX         0.03130  -0.05691   0.70691
   4        2PY         0.01859  -0.02924  -0.10857   0.83890
   5        2PZ         0.00353  -0.00418  -0.01825  -0.01190   0.85883
   6        3S         -0.22234   0.56202  -0.15626  -0.09510  -0.02590
   7        3PX         0.01966  -0.04146   0.42469  -0.09331  -0.01700
   8        3PY         0.01193  -0.02233  -0.09098   0.52448  -0.00997
   9        3PZ         0.00218  -0.00279  -0.01512  -0.00941   0.57101
  10        4XX        -0.02277   0.01452   0.03626  -0.00815  -0.00049
  11        4YY        -0.02091   0.01091  -0.00718   0.02774   0.00050
  12        4ZZ        -0.02038   0.00993  -0.00114   0.00143   0.00593
  13        4XY        -0.00228   0.00441   0.00946   0.02189  -0.00076
  14        4XZ        -0.00027   0.00058   0.00133  -0.00102   0.03124
  15        4YZ        -0.00019   0.00043  -0.00101   0.00224   0.01913
  16 2   C  1S          0.00540  -0.01231  -0.08092  -0.04477  -0.00747
  17        2S          0.00143   0.00348   0.18784   0.10286   0.01932
  18        2PX         0.01563  -0.04921  -0.18574  -0.18969  -0.02408
  19        2PY         0.01298  -0.04039  -0.22456  -0.08895  -0.01884
  20        2PZ         0.00123  -0.00525  -0.01946  -0.01083   0.11904
  21        3S          0.01566  -0.03618   0.04645   0.06558  -0.00815
  22        3PX        -0.00549   0.01163   0.04690  -0.02147  -0.01652
  23        3PY        -0.00442   0.00759  -0.05692   0.10585  -0.01854
  24        3PZ        -0.00036  -0.00034  -0.00216  -0.00280   0.05733
  25        4XX        -0.00391   0.01018  -0.01067   0.03633   0.00268
  26        4YY         0.00117  -0.00199   0.00912  -0.03230  -0.00054
  27        4ZZ         0.00305  -0.00749  -0.01279  -0.00836  -0.00352
  28        4XY        -0.00853   0.01976   0.03898   0.01582   0.00499
  29        4XZ        -0.00079   0.00176   0.00371   0.00398  -0.02998
  30        4YZ        -0.00067   0.00162   0.00453   0.00168  -0.02867
  31 3   O  1S         -0.00032   0.00089  -0.00139   0.01543  -0.00179
  32        2S          0.00095  -0.00155  -0.00199  -0.02432   0.00017
  33        2PX        -0.01836   0.02876   0.02574   0.10897   0.00666
  34        2PY        -0.00917   0.02503   0.03570   0.09348  -0.00823
  35        2PZ        -0.00021  -0.00173   0.00115  -0.00232  -0.15058
  36        3S         -0.00436   0.01224   0.05565  -0.11783   0.02824
  37        3PX        -0.01143   0.01708   0.01194   0.07770   0.01058
  38        3PY        -0.00284   0.00848  -0.00279   0.08247  -0.01642
  39        3PZ        -0.00016  -0.00080   0.00492  -0.00473  -0.12341
  40        4XX        -0.00004   0.00010  -0.00393   0.00782  -0.00147
  41        4YY        -0.00019  -0.00002   0.00003   0.00472  -0.00035
  42        4ZZ         0.00008   0.00020  -0.00076   0.00474  -0.00235
  43        4XY         0.00019   0.00023   0.00447  -0.00054  -0.00052
  44        4XZ        -0.00002  -0.00006  -0.00046   0.00035  -0.00173
  45        4YZ        -0.00004   0.00026   0.00046   0.00040   0.00570
  46 4   F  1S          0.00030   0.00040   0.01083  -0.00442  -0.00091
  47        2S          0.00100  -0.00184  -0.01797   0.00239  -0.00233
  48        2PX        -0.01435   0.02245   0.14933  -0.01733   0.00449
  49        2PY        -0.00658  -0.00721   0.01181   0.00144   0.00130
  50        2PZ        -0.00092  -0.00469  -0.00436   0.00218  -0.04979
  51        3S         -0.00449   0.00834  -0.06292   0.03947   0.01462
  52        3PX        -0.00772   0.01065   0.10925  -0.02559   0.00018
  53        3PY        -0.00471  -0.00463   0.00383  -0.00139   0.00648
  54        3PZ        -0.00061  -0.00330  -0.00464   0.00323  -0.04266
  55        4XX         0.00073  -0.00073   0.00492  -0.00046  -0.00193
  56        4YY         0.00046  -0.00096   0.00312  -0.00533  -0.00134
  57        4ZZ         0.00080  -0.00123   0.00277  -0.00333  -0.00219
  58        4XY         0.00018   0.00021   0.00195  -0.00037  -0.00084
  59        4XZ        -0.00000   0.00021   0.00053  -0.00032   0.00081
  60        4YZ        -0.00003  -0.00008  -0.00009  -0.00014  -0.00220
                           6         7         8         9        10
   6        3S          0.62519
   7        3PX        -0.08803   0.25833
   8        3PY        -0.05306  -0.07073   0.33022
   9        3PZ        -0.01587  -0.01291  -0.00743   0.38100
  10        4XX         0.00391   0.02071  -0.00693  -0.00053   0.00326
  11        4YY         0.00412  -0.00624   0.01674   0.00024   0.00043
  12        4ZZ         0.00672  -0.00146   0.00050   0.00390   0.00064
  13        4XY        -0.00024   0.00479   0.01315  -0.00061   0.00073
  14        4XZ        -0.00047   0.00061  -0.00081   0.02043   0.00011
  15        4YZ        -0.00029  -0.00080   0.00132   0.01246  -0.00003
  16 2   C  1S          0.01386  -0.04977  -0.02704  -0.00402  -0.00885
  17        2S         -0.07305   0.10686   0.05583   0.00982   0.01795
  18        2PX         0.03089  -0.09657  -0.10173  -0.01368  -0.00833
  19        2PY         0.02043  -0.12199  -0.04570  -0.01036  -0.01711
  20        2PZ         0.00489  -0.00916  -0.00558   0.06063  -0.00243
  21        3S         -0.07166   0.02401   0.03663  -0.00766   0.00634
  22        3PX         0.04146   0.03545  -0.00818  -0.01043   0.00068
  23        3PY         0.03782  -0.03094   0.06789  -0.01153  -0.00679
  24        3PZ         0.00400  -0.00013  -0.00088   0.02872  -0.00075
  25        4XX         0.00942  -0.00785   0.02243   0.00179  -0.00037
  26        4YY        -0.00075   0.00663  -0.01994  -0.00039   0.00039
  27        4ZZ        -0.00249  -0.00714  -0.00459  -0.00202  -0.00126
  28        4XY         0.02193   0.02430   0.01010   0.00345   0.00149
  29        4XZ         0.00184   0.00221   0.00255  -0.02028   0.00014
  30        4YZ         0.00119   0.00289   0.00078  -0.01992   0.00030
  31 3   O  1S         -0.00347  -0.00278   0.00707  -0.00124  -0.00010
  32        2S          0.00956   0.00310  -0.00829   0.00027   0.00009
  33        2PX         0.14581   0.03728   0.09813   0.00839  -0.00695
  34        2PY         0.02822   0.01418   0.05842  -0.00802   0.00111
  35        2PZ         0.00733   0.00586  -0.00194  -0.12033  -0.00091
  36        3S          0.00593   0.03418  -0.06753   0.01786   0.00531
  37        3PX         0.09316   0.02115   0.06812   0.00978  -0.00496
  38        3PY         0.01674  -0.00477   0.05225  -0.01213  -0.00124
  39        3PZ         0.00357   0.00621  -0.00361  -0.09450  -0.00017
  40        4XX         0.00152  -0.00237   0.00485  -0.00091  -0.00040
  41        4YY        -0.00146   0.00022   0.00281  -0.00004   0.00018
  42        4ZZ         0.00091  -0.00043   0.00297  -0.00168  -0.00015
  43        4XY        -0.00663   0.00144  -0.00196  -0.00059   0.00055
  44        4XZ         0.00056  -0.00018   0.00038  -0.00116  -0.00006
  45        4YZ        -0.00027  -0.00004   0.00025   0.00514   0.00008
  46 4   F  1S         -0.00397   0.00483  -0.00334  -0.00064   0.00056
  47        2S          0.00367  -0.00718   0.00154  -0.00156  -0.00002
  48        2PX         0.09951   0.10817  -0.00968   0.00431  -0.00941
  49        2PY         0.09790   0.02887  -0.00040   0.00470  -0.00732
  50        2PZ         0.02200  -0.00055   0.00992  -0.04954  -0.00296
  51        3S          0.00911  -0.03738   0.02278   0.00956  -0.00382
  52        3PX         0.06694   0.07941  -0.01414   0.00119  -0.00596
  53        3PY         0.06454   0.01651  -0.00211   0.00689  -0.00510
  54        3PZ         0.01485  -0.00152   0.00787  -0.03923  -0.00211
  55        4XX        -0.00602   0.00232  -0.00061  -0.00140   0.00141
  56        4YY         0.00239   0.00279  -0.00300  -0.00076   0.00000
  57        4ZZ        -0.00014   0.00205  -0.00196  -0.00149   0.00012
  58        4XY        -0.00172   0.00069  -0.00029  -0.00066   0.00005
  59        4XZ        -0.00040   0.00027  -0.00044   0.00125   0.00006
  60        4YZ         0.00043   0.00005  -0.00001  -0.00174  -0.00004
                          11        12        13        14        15
  11        4YY         0.00187
  12        4ZZ         0.00066   0.00052
  13        4XY         0.00094   0.00014   0.00103
  14        4XZ        -0.00001   0.00023   0.00000   0.00124
  15        4YZ         0.00011   0.00016   0.00006   0.00078   0.00052
  16 2   C  1S         -0.00262   0.00088  -0.00729  -0.00104  -0.00073
  17        2S          0.00680   0.00083   0.01316   0.00188   0.00133
  18        2PX        -0.01255  -0.00342  -0.00945  -0.00142  -0.00138
  19        2PY         0.00090  -0.00251  -0.00190  -0.00145  -0.00014
  20        2PZ        -0.00162   0.00050  -0.00124   0.00977   0.00739
  21        3S          0.00256  -0.00027   0.00526   0.00051   0.00061
  22        3PX        -0.00440  -0.00175   0.00012  -0.00049  -0.00057
  23        3PY         0.00117  -0.00186   0.00207  -0.00071   0.00009
  24        3PZ        -0.00065   0.00011  -0.00014   0.00465   0.00332
  25        4XX         0.00086   0.00017   0.00048   0.00007   0.00012
  26        4YY        -0.00076  -0.00002  -0.00060   0.00002  -0.00007
  27        4ZZ        -0.00062  -0.00021  -0.00088  -0.00024  -0.00017
  28        4XY        -0.00009  -0.00002   0.00120   0.00027   0.00015
  29        4XZ         0.00014  -0.00022   0.00022  -0.00108  -0.00073
  30        4YZ        -0.00001  -0.00008   0.00006  -0.00069  -0.00026
  31 3   O  1S         -0.00030   0.00009  -0.00012   0.00000   0.00002
  32        2S          0.00065  -0.00005   0.00052  -0.00014  -0.00004
  33        2PX        -0.00885  -0.00472   0.00257  -0.00027   0.00015
  34        2PY        -0.00315   0.00120  -0.00496   0.00036   0.00006
  35        2PZ        -0.00097  -0.00067  -0.00009   0.00145   0.00355
  36        3S         -0.00197   0.00204  -0.00384   0.00093  -0.00004
  37        3PX        -0.00546  -0.00300   0.00173   0.00001   0.00027
  38        3PY        -0.00106   0.00006  -0.00180  -0.00023  -0.00000
  39        3PZ        -0.00065  -0.00043  -0.00020  -0.00008   0.00173
  40        4XX         0.00005  -0.00010   0.00006  -0.00006  -0.00001
  41        4YY         0.00053  -0.00008   0.00078  -0.00005   0.00000
  42        4ZZ         0.00001  -0.00005   0.00006  -0.00003   0.00002
  43        4XY         0.00066   0.00028   0.00013   0.00002   0.00001
  44        4XZ        -0.00004  -0.00004  -0.00000  -0.00007  -0.00005
  45        4YZ         0.00005   0.00002  -0.00000  -0.00024  -0.00031
  46 4   F  1S         -0.00010   0.00068  -0.00023  -0.00003  -0.00010
  47        2S          0.00005  -0.00054  -0.00001  -0.00012  -0.00004
  48        2PX        -0.00420  -0.00427   0.00147   0.00031   0.00014
  49        2PY        -0.01315  -0.00846  -0.00008   0.00038  -0.00026
  50        2PZ        -0.00209  -0.00324   0.00066  -0.00033  -0.00282
  51        3S          0.00354   0.00049  -0.00019   0.00035   0.00059
  52        3PX        -0.00400  -0.00322   0.00073   0.00010  -0.00006
  53        3PY        -0.00860  -0.00552  -0.00024   0.00043  -0.00006
  54        3PZ        -0.00131  -0.00228   0.00048  -0.00069  -0.00227
  55        4XX         0.00002   0.00011   0.00028  -0.00003  -0.00006
  56        4YY        -0.00058  -0.00026  -0.00007  -0.00005  -0.00007
  57        4ZZ        -0.00030  -0.00013  -0.00004  -0.00006  -0.00007
  58        4XY         0.00024   0.00018  -0.00009  -0.00003  -0.00001
  59        4XZ         0.00006   0.00008  -0.00002  -0.00009   0.00000
  60        4YZ        -0.00005  -0.00005   0.00000  -0.00002  -0.00002
                          16        17        18        19        20
  16 2   C  1S          2.04571
  17        2S         -0.07910   0.40038
  18        2PX        -0.00214   0.00368   0.30571
  19        2PY        -0.02281   0.05549   0.00735   0.39286
  20        2PZ        -0.00241   0.00475   0.00196  -0.00315   0.32346
  21        3S         -0.08641   0.18737   0.03779   0.00249   0.02159
  22        3PX        -0.00896   0.01717   0.05156  -0.01757  -0.00124
  23        3PY         0.00511  -0.01089  -0.01938   0.03448   0.00546
  24        3PZ        -0.00548   0.01232  -0.00056   0.00053   0.15060
  25        4XX        -0.01089  -0.01275  -0.00277  -0.02706   0.00014
  26        4YY        -0.01619  -0.00122  -0.00044   0.01567   0.00077
  27        4ZZ        -0.00922  -0.02134   0.00436  -0.00100  -0.00233
  28        4XY        -0.00098   0.00474  -0.01449  -0.01228  -0.00075
  29        4XZ         0.00002   0.00016  -0.00286  -0.00075  -0.00418
  30        4YZ        -0.00006   0.00009  -0.00073  -0.00387   0.01475
  31 3   O  1S          0.00923  -0.00771   0.00104  -0.03674   0.00363
  32        2S         -0.02217   0.02229  -0.00354   0.08940  -0.00898
  33        2PX        -0.00687   0.02069   0.18727  -0.01332  -0.00334
  34        2PY         0.11077  -0.27823   0.00080  -0.36526   0.04463
  35        2PZ        -0.01513   0.03425  -0.00202   0.02913   0.36355
  36        3S          0.02145  -0.08565  -0.00147  -0.03522  -0.00537
  37        3PX        -0.00230   0.00976   0.11747  -0.00564  -0.00216
  38        3PY         0.05427  -0.13453   0.00243  -0.17498   0.02612
  39        3PZ        -0.00811   0.01782  -0.00113   0.01450   0.22699
  40        4XX         0.00128  -0.00315  -0.00037  -0.00303   0.00013
  41        4YY        -0.01082   0.02577  -0.00054   0.02168  -0.00408
  42        4ZZ         0.00053  -0.00128  -0.00006  -0.00258   0.00291
  43        4XY         0.00015  -0.00049  -0.01518   0.00051   0.00009
  44        4XZ         0.00002  -0.00004   0.00117   0.00003  -0.00046
  45        4YZ         0.00137  -0.00304   0.00007  -0.00277  -0.02403
  46 4   F  1S         -0.00062   0.00739  -0.00235   0.00322   0.00036
  47        2S         -0.00211  -0.01023   0.01778  -0.01432  -0.00227
  48        2PX         0.06829  -0.15583  -0.24231   0.17285   0.00680
  49        2PY        -0.01848   0.04229   0.10056  -0.03728  -0.00206
  50        2PZ        -0.00556   0.01434   0.01890  -0.01222   0.07829
  51        3S          0.02836  -0.07672  -0.05759   0.01927   0.00322
  52        3PX         0.04419  -0.09671  -0.14451   0.11231   0.00286
  53        3PY        -0.01011   0.02213   0.06163  -0.02265  -0.00135
  54        3PZ        -0.00310   0.00803   0.01196  -0.00784   0.04428
  55        4XX        -0.01083   0.02070   0.01629  -0.01331  -0.00127
  56        4YY        -0.00179   0.00355   0.00712  -0.00031  -0.00083
  57        4ZZ        -0.00104   0.00230   0.00397  -0.00161  -0.00005
  58        4XY         0.00388  -0.00746  -0.00681  -0.00060   0.00047
  59        4XZ         0.00075  -0.00147  -0.00131   0.00086  -0.00632
  60        4YZ        -0.00029   0.00057   0.00056   0.00007   0.00302
                          21        22        23        24        25
  21        3S          0.11838
  22        3PX         0.00323   0.04215
  23        3PY         0.00438   0.00449   0.06060
  24        3PZ         0.01193   0.00137   0.00100   0.07375
  25        4XX        -0.00095  -0.00114   0.00786  -0.00035   0.00477
[...]
  42        4ZZ         0.00024  -0.00000   0.00091  -0.00002   0.00002
  43        4XY         0.00000   0.00128   0.00000   0.00000   0.00000
  44        4XZ        -0.00000   0.00001  -0.00000  -0.00000   0.00000
  45        4YZ         0.00004   0.00000   0.00001   0.00174  -0.00001
  46 4   F  1S          0.00036   0.00041   0.00007   0.00000  -0.00002
  47        2S         -0.00423  -0.00486  -0.00087   0.00001   0.00077
  48        2PX         0.01157  -0.00190   0.00525   0.00005   0.00105
  49        2PY         0.00224   0.00279   0.00764   0.00001   0.00145
  50        2PZ        -0.00003   0.00020   0.00005   0.00643   0.00001
  51        3S         -0.02397  -0.02295  -0.00386  -0.00001   0.00235
  52        3PX         0.03306  -0.00483   0.01125   0.00011   0.00246
  53        3PY         0.00615   0.00554   0.02579   0.00003   0.00336
  54        3PZ        -0.00013   0.00043   0.00011   0.01841   0.00004
  55        4XX         0.00363   0.00036   0.00095   0.00001   0.00016
  56        4YY         0.00042   0.00123  -0.00016   0.00001   0.00000
  57        4ZZ         0.00026   0.00053  -0.00000  -0.00000   0.00000
  58        4XY         0.00030   0.00007   0.00029   0.00000   0.00010
  59        4XZ         0.00001   0.00000   0.00000   0.00057   0.00000
  60        4YZ         0.00000   0.00000   0.00000   0.00009   0.00000
                          26        27        28        29        30
  26        4YY         0.00323
  27        4ZZ         0.00000   0.00154
  28        4XY         0.00000  -0.00000   0.00718
  29        4XZ        -0.00000  -0.00000   0.00000   0.00172
  30        4YZ        -0.00000  -0.00000   0.00000   0.00000   0.00283
  31 3   O  1S         -0.00055   0.00000  -0.00000   0.00000  -0.00001
  32        2S          0.00732  -0.00036   0.00000  -0.00000   0.00009
  33        2PX         0.00000   0.00000   0.00719   0.00002  -0.00000
  34        2PY         0.00353  -0.00062   0.00002  -0.00000   0.00028
  35        2PZ         0.00009   0.00002   0.00000   0.00000   0.00485
  36        3S          0.01179  -0.00102   0.00000  -0.00000   0.00008
  37        3PX         0.00000   0.00000   0.00777   0.00003  -0.00000
  38        3PY         0.00307  -0.00184   0.00000  -0.00000   0.00009
  39        3PZ         0.00010  -0.00002   0.00000   0.00000   0.00563
  40        4XX        -0.00018   0.00001   0.00000  -0.00000  -0.00000
  41        4YY         0.00003  -0.00020  -0.00000   0.00000   0.00003
  42        4ZZ        -0.00010   0.00001  -0.00000  -0.00000   0.00001
  43        4XY        -0.00000   0.00000   0.00058   0.00001   0.00000
  44        4XZ        -0.00000  -0.00000   0.00000   0.00001  -0.00000
  45        4YZ         0.00001   0.00000   0.00000   0.00000   0.00070
  46 4   F  1S          0.00000   0.00000  -0.00002  -0.00000  -0.00000
  47        2S         -0.00011  -0.00002   0.00056   0.00001   0.00000
  48        2PX        -0.00037  -0.00005   0.00297   0.00004   0.00001
  49        2PY         0.00003  -0.00001  -0.00001   0.00001  -0.00000
  50        2PZ        -0.00000   0.00000   0.00002   0.00078   0.00021
  51        3S         -0.00051  -0.00008   0.00121   0.00001   0.00000
  52        3PX        -0.00196  -0.00055   0.00399   0.00005   0.00001
  53        3PY        -0.00038  -0.00009   0.00001   0.00002   0.00000
  54        3PZ        -0.00002  -0.00000   0.00003   0.00263   0.00073
  55        4XX        -0.00013  -0.00008   0.00033   0.00000   0.00000
  56        4YY        -0.00000  -0.00000   0.00000   0.00000   0.00000
  57        4ZZ        -0.00000  -0.00000  -0.00000   0.00000  -0.00000
  58        4XY         0.00000  -0.00002  -0.00000   0.00000   0.00000
  59        4XZ        -0.00000   0.00000   0.00000   0.00011   0.00002
  60        4YZ         0.00000   0.00000  -0.00000   0.00002   0.00000
                          31        32        33        34        35
  31 3   O  1S          2.08011
  32        2S         -0.04391   0.52872
  33        2PX         0.00000   0.00000   0.81116
  34        2PY         0.00000   0.00000   0.00000   0.56290
  35        2PZ         0.00000   0.00000   0.00000   0.00000   0.57941
  36        3S         -0.04259   0.46362   0.00000   0.00000   0.00000
  37        3PX         0.00000   0.00000   0.26439  -0.00000   0.00000
  38        3PY         0.00000   0.00000  -0.00000   0.14368   0.00000
  39        3PZ         0.00000   0.00000   0.00000   0.00000   0.19123
  40        4XX        -0.00036  -0.00582   0.00000   0.00000   0.00000
  41        4YY        -0.00037  -0.00461   0.00000   0.00000   0.00000
  42        4ZZ        -0.00044  -0.00331   0.00000   0.00000   0.00000
  43        4XY        -0.00000  -0.00000   0.00000   0.00000   0.00000
  44        4XZ         0.00000   0.00000   0.00000   0.00000   0.00000
  45        4YZ        -0.00000   0.00000   0.00000   0.00000   0.00000
  46 4   F  1S          0.00000   0.00000   0.00000   0.00000   0.00000
  47        2S          0.00000  -0.00000  -0.00000  -0.00000  -0.00000
  48        2PX         0.00000  -0.00000  -0.00001  -0.00001  -0.00000
  49        2PY         0.00000  -0.00000  -0.00001  -0.00001  -0.00000
  50        2PZ         0.00000   0.00000   0.00000  -0.00000  -0.00000
  51        3S         -0.00000   0.00004  -0.00063  -0.00025   0.00000
  52        3PX         0.00000  -0.00013  -0.00093  -0.00095  -0.00000
  53        3PY         0.00001  -0.00017  -0.00135  -0.00090  -0.00000
  54        3PZ         0.00000   0.00000   0.00000  -0.00000  -0.00031
  55        4XX         0.00000  -0.00000  -0.00000  -0.00000  -0.00000
  56        4YY         0.00000  -0.00000   0.00002   0.00000  -0.00000
  57        4ZZ         0.00000  -0.00000   0.00000   0.00000   0.00000
  58        4XY         0.00000  -0.00000  -0.00000   0.00001  -0.00000
  59        4XZ         0.00000   0.00000   0.00000   0.00000   0.00000
  60        4YZ        -0.00000   0.00000   0.00000   0.00000   0.00000
                          36        37        38        39        40
  36        3S          0.80525
  37        3PX         0.00000   0.34292
  38        3PY         0.00000  -0.00000   0.15141
  39        3PZ         0.00000   0.00000   0.00000   0.25290
  40        4XX        -0.00957   0.00000   0.00000   0.00000   0.00057
  41        4YY        -0.01668   0.00000   0.00000   0.00000   0.00003
  42        4ZZ        -0.00512   0.00000   0.00000   0.00000   0.00012
  43        4XY         0.00000   0.00000   0.00000   0.00000   0.00000
  44        4XZ         0.00000   0.00000   0.00000   0.00000  -0.00000
  45        4YZ         0.00000   0.00000   0.00000   0.00000  -0.00000
  46 4   F  1S         -0.00000   0.00003   0.00001  -0.00000  -0.00000
  47        2S          0.00004  -0.00044  -0.00023  -0.00000   0.00000
  48        2PX         0.00018  -0.00077  -0.00075  -0.00000  -0.00000
  49        2PY        -0.00142  -0.00141  -0.00183  -0.00000   0.00001
  50        2PZ        -0.00000   0.00000  -0.00000  -0.00052   0.00000
  51        3S          0.00113  -0.00575  -0.00170   0.00000   0.00002
  52        3PX         0.00147  -0.00405  -0.00393  -0.00000  -0.00002
  53        3PY        -0.00916  -0.00788  -0.00779  -0.00000   0.00034
  54        3PZ        -0.00000   0.00000  -0.00000  -0.00399   0.00000
  55        4XX        -0.00001  -0.00005  -0.00000  -0.00000  -0.00000
  56        4YY        -0.00010   0.00040   0.00003  -0.00000   0.00000
  57        4ZZ        -0.00002   0.00006   0.00000  -0.00000   0.00000
  58        4XY        -0.00016  -0.00004   0.00003  -0.00000   0.00000
  59        4XZ        -0.00000   0.00000   0.00000   0.00000   0.00000
  60        4YZ         0.00000   0.00000   0.00000   0.00004  -0.00000
                          41        42        43        44        45
  41        4YY         0.00309
  42        4ZZ         0.00001   0.00030
  43        4XY        -0.00000  -0.00000   0.00184
  44        4XZ         0.00000  -0.00000  -0.00000   0.00002
  45        4YZ         0.00000  -0.00000  -0.00000   0.00000   0.00226
  46 4   F  1S          0.00000   0.00000   0.00000   0.00000  -0.00000
  47        2S         -0.00000  -0.00000  -0.00000  -0.00000  -0.00000
  48        2PX        -0.00000  -0.00000   0.00000   0.00000  -0.00000
  49        2PY         0.00000   0.00000   0.00000  -0.00000  -0.00000
  50        2PZ         0.00000  -0.00000   0.00000   0.00000  -0.00000
  51        3S         -0.00007  -0.00000  -0.00013  -0.00000   0.00000
  52        3PX        -0.00008  -0.00001  -0.00001  -0.00000  -0.00000
  53        3PY         0.00005   0.00005  -0.00003  -0.00000  -0.00000
  54        3PZ         0.00000   0.00000   0.00000   0.00002  -0.00005
  55        4XX         0.00000  -0.00000   0.00000   0.00000  -0.00000
  56        4YY         0.00000   0.00000   0.00001   0.00000  -0.00000
  57        4ZZ         0.00000   0.00000   0.00000  -0.00000   0.00000
  58        4XY         0.00001   0.00000   0.00000  -0.00000  -0.00000
  59        4XZ         0.00000  -0.00000   0.00000   0.00000   0.00000
  60        4YZ         0.00000   0.00000   0.00000   0.00000   0.00000
                          46        47        48        49        50
  46 4   F  1S          2.08723
  47        2S         -0.05258   0.56296
  48        2PX         0.00000   0.00000   0.62804
  49        2PY         0.00000   0.00000   0.00000   0.87853
  50        2PZ         0.00000   0.00000   0.00000  -0.00000   0.86323
  51        3S         -0.04074   0.44801   0.00000   0.00000   0.00000
  52        3PX         0.00000   0.00000   0.20597   0.00000   0.00000
  53        3PY         0.00000   0.00000   0.00000   0.29268  -0.00000
  54        3PZ         0.00000   0.00000   0.00000  -0.00000   0.29797
  55        4XX        -0.00053   0.00695   0.00000   0.00000   0.00000
  56        4YY        -0.00041   0.00214   0.00000   0.00000   0.00000
  57        4ZZ        -0.00041   0.00211   0.00000   0.00000   0.00000
  58        4XY         0.00000  -0.00000   0.00000   0.00000   0.00000
  59        4XZ         0.00000  -0.00000   0.00000   0.00000   0.00000
  60        4YZ        -0.00000   0.00000   0.00000   0.00000   0.00000
                          51        52        53        54        55
  51        3S          0.65042
  52        3PX         0.00000   0.27288
  53        3PY         0.00000   0.00000   0.39126
  54        3PZ         0.00000   0.00000  -0.00000   0.41255
  55        4XX         0.00555   0.00000   0.00000   0.00000   0.00352
  56        4YY         0.00140   0.00000   0.00000   0.00000   0.00021
  57        4ZZ         0.00219   0.00000   0.00000   0.00000   0.00020
  58        4XY        -0.00000   0.00000   0.00000   0.00000  -0.00000
  59        4XZ        -0.00000   0.00000   0.00000   0.00000  -0.00000
  60        4YZ         0.00000   0.00000   0.00000   0.00000   0.00000
                          56        57        58        59        60
  56        4YY         0.00062
  57        4ZZ         0.00013   0.00030
  58        4XY        -0.00000  -0.00000   0.00074
  59        4XZ        -0.00000  -0.00000   0.00000   0.00080
  60        4YZ         0.00000   0.00000  -0.00000  -0.00000   0.00009
     Gross orbital populations:
                           1
   1 1   F  1S          1.99320
   2        2S          0.96904
   3        2PX         0.99451
   4        2PY         1.14131
   5        2PZ         1.15920
   6        3S          0.92143
   7        3PX         0.56701
   8        3PY         0.63491
   9        3PZ         0.69264
  10        4XX         0.02871
  11        4YY         0.01722
  12        4ZZ         0.01166
  13        4XY         0.00630
  14        4XZ         0.00394
  15        4YZ         0.00196
  16 2   C  1S          1.99161
  17        2S          0.72525
  18        2PX         0.54765
  19        2PY         0.66435
  20        2PZ         0.52916
  21        3S          0.22770
  22        3PX         0.10828
  23        3PY         0.08255
  24        3PZ         0.27612
  25        4XX         0.00662
  26        4YY         0.01839
  27        4ZZ        -0.02796
  28        4XY         0.05106
  29        4XZ         0.01249
  30        4YZ         0.02025
  31 3   O  1S          1.99285
  32        2S          0.93235
  33        2PX         1.11401
  34        2PY         0.86225
  35        2PZ         0.82448
  36        3S          1.02038
  37        3PX         0.66099
  38        3PY         0.40601
  39        3PZ         0.54714
  40        4XX        -0.01332
  41        4YY         0.00563
  42        4ZZ        -0.00782
  43        4XY         0.00667
  44        4XZ         0.00010
  45        4YZ         0.00999
  46 4   F  1S          1.99339
  47        2S          0.96161
  48        2PX         0.88691
  49        2PY         1.18588
  50        2PZ         1.16991
  51        3S          0.98332
  52        3PX         0.58807
  53        3PY         0.70876
  54        3PZ         0.73381
  55        4XX         0.03125
  56        4YY         0.00717
  57        4ZZ         0.00585
  58        4XY         0.00319
  59        4XZ         0.00220
  60        4YZ         0.00038
          Condensed to atoms (all electrons):
               1          2          3          4
     1  F    8.912998   0.297402  -0.048066  -0.019301
     2  C    0.297402   4.215523   0.480383   0.240230
     3  O   -0.048066   0.480383   7.983471  -0.054069
     4  F   -0.019301   0.240230  -0.054069   9.094854
 Mulliken charges:
               1
     1  F   -0.143032
     2  C    0.766463
     3  O   -0.361718
     4  F   -0.261713
 Sum of Mulliken charges =  -0.00000
 Mulliken charges with hydrogens summed into heavy atoms:
               1
     1  F   -0.143032
     2  C    0.766463
     3  O   -0.361718
     4  F   -0.261713
 Electronic spatial extent (au):  <R**2>=            219.9911
 Charge=             -0.0000 electrons
 Dipole moment (field-independent basis, Debye):
    X=             -0.9533    Y=             -1.4909    Z=              0.2048  Tot=              1.7815
 Quadrupole moment (field-independent basis, Debye-Ang):
   XX=            -20.7846   YY=            -22.4214   ZZ=            -18.6392
   XY=              0.6158   XZ=             -0.0359   YZ=             -0.0280
 Traceless Quadrupole moment (field-independent basis, Debye-Ang):
   XX=             -0.1695   YY=             -1.8063   ZZ=              1.9758
   XY=              0.6158   XZ=             -0.0359   YZ=             -0.0280
 Octapole moment (field-independent basis, Debye-Ang**2):
  XXX=             -0.9332  YYY=             -8.2106  ZZZ=             -0.2541  XYY=              0.0344
  XXY=             -1.6257  XXZ=             -0.2226  XZZ=             -0.1396  YZZ=             -1.6630
  YYZ=             -0.2011  XYZ=             -0.0077
 Hexadecapole moment (field-independent basis, Debye-Ang**3):
 XXXX=            -96.7815 YYYY=            -93.0723 ZZZZ=            -12.2157 XXXY=              1.5905
 XXXZ=             -0.0440 YYYX=              1.6682 YYYZ=             -0.0919 ZZZX=              0.0129
 ZZZY=             -0.0174 XXYY=            -31.7356 XXZZ=            -18.4826 YYZZ=            -16.8029
 XXYZ=              0.1399 YYXZ=              0.0280 ZZXY=              0.3586
 N-N= 1.108976558894D+02 E-N=-9.629371947586D+02  KE= 3.100584467485D+02
 Orbital energies and kinetic energies (alpha):
                                 1                 2
   1         O               -24.824434         37.082393
   2         O               -24.743086         37.086094
   3         O               -19.210712         29.033572
   4         O               -10.474452         15.897563
   5         O                -1.342077          3.608516
   6         O                -1.203410          3.722198
   7         O                -1.061060          2.831538
   8         O                -0.702354          3.087970
   9         O                -0.595310          2.695979
  10         O                -0.568209          2.630735
  11         O                -0.544344          2.905369
  12         O                -0.464954          3.039176
  13         O                -0.451554          3.002122
  14         O                -0.434741          3.120564
  15         O                -0.379704          2.598555
  16         O                -0.338186          2.686879
  17         V                -0.081865          2.689837
  18         V                -0.015789          3.389423
  19         V                 0.189170          3.212885
  20         V                 0.283590          2.496637
  21         V                 0.468306          2.309923
  22         V                 0.475878          1.952075
  23         V                 0.494055          1.978807
  24         V                 0.545448          2.744593
  25         V                 0.837894          2.663095
  26         V                 0.932218          3.565555
  27         V                 0.937186          3.451980
  28         V                 1.039867          3.256641
  29         V                 1.077956          4.044405
  30         V                 1.117752          3.573018
  31         V                 1.218990          3.085222
  32         V                 1.257811          4.206272
  33         V                 1.260188          4.107458
  34         V                 1.331777          3.747826
  35         V                 1.355096          2.768701
  36         V                 1.383962          2.893945
  37         V                 1.528019          3.537714
  38         V                 1.605409          3.489404
  39         V                 1.726623          3.098881
  40         V                 1.749213          2.839000
  41         V                 1.768813          2.890672
  42         V                 1.783652          3.092010
  43         V                 1.817237          3.110977
  44         V                 1.824350          2.836567
  45         V                 1.838307          3.075788
  46         V                 1.896898          3.201693
  47         V                 1.936835          3.382295
  48         V                 1.972188          3.408370
  49         V                 2.099626          3.633156
  50         V                 2.366781          3.837472
  51         V                 2.543296          4.360313
  52         V                 2.556618          4.623222
  53         V                 2.660824          4.969379
  54         V                 2.824361          4.770304
  55         V                 2.964931          5.733145
  56         V                 3.016390          4.737245
  57         V                 3.684739         10.325632
  58         V                 4.026860         11.510509
  59         V                 4.201441          9.778374
  60         V                 4.581657         12.419796
 Total kinetic energy from orbitals= 3.100584467485D+02
 Unable to Open any file for archive entry.
 1\1\GINC-SPARTAN-BM162\SP\RB3LYP\6-31G(d)\C1F2O1\AKHALILOV\20-Mar-2025
 \0\\# B3LYP/6-31G(d) pop=full density=current\\CF2O Time step 35\\0,1\
 F,0,1.213145,-0.581641,0.051622\C,0,0.091175,0.073343,-0.076533\O,0,0.
 000325,1.345279,-0.076017\F,0,-1.271007,-0.597287,0.060718\\Version=ES
 64L-G16RevC.01\State=1-A\HF=-312.9569151\RMSD=3.503e-09\Dipole=0.41822
 1,-0.5607226,-0.043711\Quadrupole=-0.0638358,-1.3886238,1.4524596,-0.3
 606695,0.0044169,0.2197856\PG=C01 [X(C1F2O1)]\\@
 The archive entry for this job was punched.


 ALL THINGS ARE POSSIBLE EXCEPT SKIING THROUGH A REVOLVING DOOR.
 Job cpu time:       0 days  0 hours  0 minutes  2.8 seconds.
 Elapsed time:       0 days  0 hours  0 minutes  0.9 seconds.
 File lengths (MBytes):  RWF=      6 Int=      0 D2E=      0 Chk=      1 Scr=      1
 Normal termination of Gaussian 16 at Thu Mar 20 00:08:03 2025.
