CF2O Time step 15                                                       
SP        RB3LYP                                                      6-31G(d)            
Number of atoms                            I                4
Info1-9                                    I   N=           9
          13          13           0           0           0         110
           1          18        -502
Full Title                                 C   N=           2
CF2O Time step 15       
Route                                      C   N=           4
# B3LYP/6-31G(d) pop=full density=current       
Charge                                     I                0
Multiplicity                               I                1
Number of electrons                        I               32
Number of alpha electrons                  I               16
Number of beta electrons                   I               16
Number of basis functions                  I               60
Number of independent functions            I               60
Number of point charges in /Mol/           I                0
Number of translation vectors              I                0
Atomic numbers                             I   N=           4
           9           6           8           9
Nuclear charges                            R   N=           4
  9.00000000E+00  6.00000000E+00  8.00000000E+00  9.00000000E+00
Current cartesian coordinates              R   N=          12
 -2.18372744E+00 -1.22912960E+00 -1.42837802E-02 -8.66023236E-02  1.05344273E-01
  6.12721817E-02 -1.09150853E-01  2.47650449E+00 -1.58414998E-02  2.33848530E+00
 -1.04243724E+00 -1.24830077E-02
Number of symbols in /Mol/                 I                0
Int Atom Types                             I   N=           4
           0           0           0           0
Force Field                                I                0
Atom Types                                 C   N=           4
                                                
MM charges                                 R   N=           4
  0.00000000E+00  0.00000000E+00  0.00000000E+00  0.00000000E+00
Integer atomic weights                     I   N=           4
          19          12          16          19
Real atomic weights                        R   N=           4
  1.89984032E+01  1.20000000E+01  1.59949146E+01  1.89984032E+01
Atom fragment info                         I   N=           4
           0           0           0           0
Atom residue num                           I   N=           4
           0           0           0           0
Nuclear spins                              I   N=           4
           1           0           0           1
Nuclear ZEff                               R   N=           4
 -6.75000000E+00 -3.60000000E+00 -5.60000000E+00 -6.75000000E+00
Nuclear ZNuc                               R   N=           4
  9.00000000E+00  6.00000000E+00  8.00000000E+00  9.00000000E+00
Nuclear QMom                               R   N=           4
  0.00000000E+00  0.00000000E+00  0.00000000E+00  0.00000000E+00
Nuclear GFac                               R   N=           4
  2.62886700E+00  0.00000000E+00  0.00000000E+00  2.62886700E+00
MicOpt                                     I   N=           4
          -1          -1          -1          -1
Number of residues                         I                0
Number of secondary structures             I                0
SymInf integers                            I   N=          26
           1           1           1           1           1           0
           0           0           0           0           0           0
           0           0           0           0           0           0
           0           0           0           0           0           0
           0           0
RotTr to input orientation                 R   N=          12
 -9.99090381E-01 -4.21288287E-02  6.60091832E-03 -4.24862962E-02  9.96675680E-01
 -6.95162062E-02 -3.65033841E-03 -6.97334215E-02 -9.97558983E-01  8.77777785E-04
  3.45137217E-02 -2.82053435E-03
Number of contracted shells                I               16
Number of primitive shells                 I               44
Pure/Cartesian d shells                    I                1
Pure/Cartesian f shells                    I                0
Highest angular momentum                   I                2
Largest degree of contraction              I                6
Shell types                                I   N=          16
           0          -1          -1           2           0          -1
          -1           2           0          -1          -1           2
           0          -1          -1           2
Number of primitives per shell             I   N=          16
           6           3           1           1           6           3
           1           1           6           3           1           1
           6           3           1           1
Shell to atom map                          I   N=          16
           1           1           1           1           2           2
           2           2           3           3           3           3
           4           4           4           4
Primitive exponents                        R   N=          44
  7.00171309E+03  1.05136609E+03  2.39285690E+02  6.73974453E+01  2.15199573E+01
  7.40310130E+00  2.08479528E+01  4.80830834E+00  1.34406986E+00  3.58151393E-01
  8.00000000E-01  3.04752488E+03  4.57369518E+02  1.03948685E+02  2.92101553E+01
  9.28666296E+00  3.16392696E+00  7.86827235E+00  1.88128854E+00  5.44249258E-01
  1.68714478E-01  8.00000000E-01  5.48467166E+03  8.25234946E+02  1.88046958E+02
  5.29645000E+01  1.68975704E+01  5.79963534E+00  1.55396162E+01  3.59993359E+00
  1.01376175E+00  2.70005823E-01  8.00000000E-01  7.00171309E+03  1.05136609E+03
  2.39285690E+02  6.73974453E+01  2.15199573E+01  7.40310130E+00  2.08479528E+01
  4.80830834E+00  1.34406986E+00  3.58151393E-01  8.00000000E-01
Contraction coefficients                   R   N=          44
  1.81961690E-03  1.39160796E-02  6.84053245E-02  2.33185760E-01  4.71267439E-01
  3.56618546E-01 -1.08506975E-01 -1.46451658E-01  1.12868858E+00  1.00000000E+00
  1.00000000E+00  1.83473713E-03  1.40373228E-02  6.88426223E-02  2.32184443E-01
  4.67941348E-01  3.62311985E-01 -1.19332420E-01 -1.60854152E-01  1.14345644E+00
  1.00000000E+00  1.00000000E+00  1.83107443E-03  1.39501722E-02  6.84450781E-02
  2.32714336E-01  4.70192898E-01  3.58520853E-01 -1.10777550E-01 -1.48026263E-01
  1.13076702E+00  1.00000000E+00  1.00000000E+00  1.81961690E-03  1.39160796E-02
  6.84053245E-02  2.33185760E-01  4.71267439E-01  3.56618546E-01 -1.08506975E-01
 -1.46451658E-01  1.12868858E+00  1.00000000E+00  1.00000000E+00
P(S=P) Contraction coefficients            R   N=          44
  0.00000000E+00  0.00000000E+00  0.00000000E+00  0.00000000E+00  0.00000000E+00
  0.00000000E+00  7.16287242E-02  3.45912103E-01  7.22469956E-01  1.00000000E+00
  0.00000000E+00  0.00000000E+00  0.00000000E+00  0.00000000E+00  0.00000000E+00
  0.00000000E+00  0.00000000E+00  6.89990666E-02  3.16423961E-01  7.44308291E-01
  1.00000000E+00  0.00000000E+00  0.00000000E+00  0.00000000E+00  0.00000000E+00
  0.00000000E+00  0.00000000E+00  0.00000000E+00  7.08742682E-02  3.39752839E-01
  7.27158577E-01  1.00000000E+00  0.00000000E+00  0.00000000E+00  0.00000000E+00
  0.00000000E+00  0.00000000E+00  0.00000000E+00  0.00000000E+00  7.16287242E-02
  3.45912103E-01  7.22469956E-01  1.00000000E+00  0.00000000E+00
Coordinates of each shell                  R   N=          48
 -2.18372744E+00 -1.22912960E+00 -1.42837802E-02 -2.18372744E+00 -1.22912960E+00
 -1.42837802E-02 -2.18372744E+00 -1.22912960E+00 -1.42837802E-02 -2.18372744E+00
 -1.22912960E+00 -1.42837802E-02 -8.66023236E-02  1.05344273E-01  6.12721817E-02
 -8.66023236E-02  1.05344273E-01  6.12721817E-02 -8.66023236E-02  1.05344273E-01
  6.12721817E-02 -8.66023236E-02  1.05344273E-01  6.12721817E-02 -1.09150853E-01
  2.47650449E+00 -1.58414998E-02 -1.09150853E-01  2.47650449E+00 -1.58414998E-02
 -1.09150853E-01  2.47650449E+00 -1.58414998E-02 -1.09150853E-01  2.47650449E+00
 -1.58414998E-02  2.33848530E+00 -1.04243724E+00 -1.24830077E-02  2.33848530E+00
 -1.04243724E+00 -1.24830077E-02  2.33848530E+00 -1.04243724E+00 -1.24830077E-02
  2.33848530E+00 -1.04243724E+00 -1.24830077E-02
Num ILSW                                   I              100
ILSW                                       I   N=         100
           0           1           0           0           2           0
           0           0           0           0         402          -1
           5           0           0           0           0           0
           0           0           1           0           0           0
           1           0           0           0           0           0
           0           0      100000           0          -1           0
           0           0           0           0           0           0
           0           0           0           1           0           0
           0 -2000000000           1           0           0           0
           0           0           4          52           0           0
           0           0           5           0           0           0
           0           0           0           0           0           1
           0           0           0           0           0           0
           0           0           0           0           0           0
           0           0           0           0           0           0
           0           0           0           0           0           0
           0           0           0           0
Num RLSW                                   I               52
RLSW                                       R   N=          52
  8.00000000E-01  7.20000000E-01  1.00000000E+00  8.10000000E-01  2.00000000E-01
  0.00000000E+00  0.00000000E+00  1.00000000E+00  0.00000000E+00  0.00000000E+00
  0.00000000E+00  0.00000000E+00  1.00000000E+00  0.00000000E+00  0.00000000E+00
  0.00000000E+00  0.00000000E+00  1.00000000E+00  0.00000000E+00  0.00000000E+00
  0.00000000E+00  0.00000000E+00  1.00000000E+00  0.00000000E+00  0.00000000E+00
  0.00000000E+00  0.00000000E+00  1.00000000E+00  0.00000000E+00  0.00000000E+00
  0.00000000E+00  0.00000000E+00  1.00000000E+00  0.00000000E+00  0.00000000E+00
  0.00000000E+00  0.00000000E+00  0.00000000E+00  1.00000000E+00  1.00000000E+00
  0.00000000E+00  1.00000000E+00  0.00000000E+00  0.00000000E+00  0.00000000E+00
  0.00000000E+00  0.00000000E+00  0.00000000E+00  0.00000000E+00  0.00000000E+00
  0.00000000E+00  0.00000000E+00
MxBond                                     I                3
NBond                                      I   N=           4
           1           3           1           1
IBond                                      I   N=          12
           2           0           0           1           3           4
           2           0           0           2           0           0
RBond                                      R   N=          12
  1.00000000E+00  0.00000000E+00  0.00000000E+00  1.00000000E+00  2.00000000E+00
  1.00000000E+00  2.00000000E+00  0.00000000E+00  0.00000000E+00  1.00000000E+00
  0.00000000E+00  0.00000000E+00
Virial Ratio                               R      2.008859702638172E+00
SCF Energy                                 R     -3.129803517149339E+02
Total Energy                               R     -3.129803517149339E+02
RMS Density                                R      5.774429029993268E-09
Job Status                                 I                1
Nuclear derivative order                   I                0
External E-field                           R   N=          35
  0.00000000E+00  0.00000000E+00  0.00000000E+00  0.00000000E+00  0.00000000E+00
  0.00000000E+00  0.00000000E+00  0.00000000E+00  0.00000000E+00  0.00000000E+00
  0.00000000E+00  0.00000000E+00  0.00000000E+00  0.00000000E+00  0.00000000E+00
  0.00000000E+00  0.00000000E+00  0.00000000E+00  0.00000000E+00  0.00000000E+00
  0.00000000E+00  0.00000000E+00  0.00000000E+00  0.00000000E+00  0.00000000E+00
  0.00000000E+00  0.00000000E+00  0.00000000E+00  0.00000000E+00  0.00000000E+00
  0.00000000E+00  0.00000000E+00  0.00000000E+00  0.00000000E+00  0.00000000E+00
IOpCl                                      I                0
IROHF                                      I                0
Alpha Orbital Energies                     R   N=          60
 -2.48068409E+01 -2.47663161E+01 -1.91980458E+01 -1.04667800E+01 -1.32796873E+00
 -1.24709716E+00 -1.06308490E+00 -6.94239138E-01 -6.13213955E-01 -5.62753693E-01
 -5.38758047E-01 -4.74378915E-01 -4.70959755E-01 -4.51001057E-01 -3.77787466E-01
 -3.33702505E-01 -5.53858793E-02  1.64555431E-02  2.26403390E-01  2.95566668E-01
  4.67293046E-01  4.75322966E-01  4.80461888E-01  5.57788902E-01  8.40518767E-01
  9.40448071E-01  9.46630532E-01  1.04110496E+00  1.08650857E+00  1.11811304E+00
  1.22308517E+00  1.26082390E+00  1.27126858E+00  1.33461534E+00  1.35727244E+00
  1.37058784E+00  1.56550843E+00  1.62362822E+00  1.74658400E+00  1.75649899E+00
  1.77559304E+00  1.79417536E+00  1.80291939E+00  1.83029850E+00  1.87252973E+00
  1.91598473E+00  1.93623605E+00  2.03216061E+00  2.10310110E+00  2.47369864E+00
  2.56751902E+00  2.63319509E+00  2.70233409E+00  2.90075168E+00  2.98921978E+00
  3.03648676E+00  3.71335437E+00  4.11292959E+00  4.32131816E+00  4.60416110E+00
Alpha MO coefficients                      R   N=        3600
  9.92976641E-01  1.95126724E-02  7.26605210E-04  3.85526294E-04  3.07031940E-05
  1.56347852E-02 -3.59071784E-04 -1.88771598E-04 -1.01019639E-05 -8.42348019E-03
 -8.19840527E-03 -8.05898446E-03 -2.66498079E-04 -1.50826083E-05 -9.61153311E-06
  1.93709012E-05  4.28875899E-04 -5.83424641E-04 -3.40471050E-04 -2.81289954E-05
 -5.06341867E-04  8.21417518E-04  5.10760010E-04  1.01163051E-05  3.49021610E-04
  1.94777230E-04 -3.60165473E-05  1.74821820E-04  9.35484849E-06  5.18706950E-06
  2.00448454E-05  1.47147327E-04  1.88066166E-05  9.15655931E-06  3.18034484E-07
 -5.28032870E-04 -1.25875332E-04  2.36358750E-04 -1.01546288E-05  3.76968257E-05
 -7.25357919E-05  1.04037249E-04 -4.08651133E-05 -3.71991754E-06  3.89651434E-06
  3.45879760E-05  2.57714555E-04 -3.76353160E-05  2.69626501E-05  1.62431127E-06
 -7.79685857E-04  1.50058857E-04 -1.65329376E-04 -8.72483730E-06  7.85170142E-05
  1.68569236E-04  2.09586902E-04  2.77252246E-05  1.77941546E-06 -4.22186348E-06
  5.78686814E-05  3.19668561E-04  3.18183452E-05  3.26494832E-05  1.65279605E-06
 -9.87739033E-04 -1.88413571E-04 -2.65296020E-04 -1.29725755E-05  1.21286772E-04
  1.47870892E-04  2.72054090E-04 -8.62344995E-05 -4.21796006E-06 -9.70751783E-06
  1.88933332E-05  4.50397991E-05  4.22656650E-04 -2.10702031E-04 -2.35011745E-05
 -2.93990072E-04 -7.71385919E-04  3.69778398E-04  2.50852055E-06  6.92655363E-04
  2.77853508E-04  4.57704878E-05 -2.45119317E-04 -1.40606915E-05  6.57023931E-06
  2.62132519E-05  1.80073470E-04 -7.47268973E-06 -1.40950624E-06  1.85669896E-07
 -6.22123251E-04  1.16241741E-04  3.02423683E-04 -1.08901768E-05  4.14005361E-05
 -6.32497117E-05  1.42359807E-04  6.50484018E-06  5.91558588E-06  7.00566158E-06
  9.93014083E-01  1.95789963E-02 -6.59570487E-04  2.27372293E-04  2.42326541E-05
  1.52345387E-02  3.05464768E-04 -1.03542375E-04 -6.95411050E-06 -8.34825875E-03
 -8.04402760E-03 -7.97119667E-03  2.06748023E-04  1.33460114E-05 -6.41756747E-06
  1.04294659E-05  7.05046391E-05  2.25985027E-05 -3.87034129E-05  3.39763824E-06
 -1.55805579E-04 -7.32214273E-05  1.89432176E-04 -1.31247825E-05  9.65994565E-05
 -6.46853039E-05  6.28014501E-05 -2.21348641E-05  2.17530076E-06  3.41492199E-06
  3.49161703E-05  6.48816944E-04  2.35123962E-05  8.80325071E-05 -3.14810120E-06
 -2.88222795E-03  3.77431484E-06 -2.10440478E-03  7.41201989E-05  1.75433635E-05
 -6.20471268E-04  3.96253355E-05 -1.38212913E-05 -6.50162052E-07  2.48092878E-05
  9.92839451E-01  2.58021207E-02 -5.12849365E-06 -1.12794068E-03  4.51811035E-05
  1.21982371E-02  2.62183921E-05 -1.14610825E-03  3.29412446E-05 -7.88790742E-03
 -7.52855939E-03 -7.90545961E-03 -1.05529270E-05  4.35181455E-07 -1.27365728E-05
  7.72450965E-06  6.28583689E-05 -1.40449473E-05 -3.04977750E-05  2.29313082E-06
 -9.35509319E-05  8.53492337E-05  1.57932459E-04 -1.12362677E-05  2.87044678E-05
 -4.89397466E-05  6.97283394E-05  3.73140112E-05  1.62818205E-06  2.92180260E-06
  4.16480320E-05  7.51949873E-04  1.09789591E-04  6.22357220E-05  5.66411344E-06
 -2.57681796E-03 -1.88821827E-03 -1.14854513E-03 -7.55446665E-05 -3.88974695E-04
  2.98319280E-04  6.82113099E-04 -6.87668513E-04 -5.10511653E-05 -3.05535059E-05
  9.93037174E-01  4.57686991E-02 -5.67730916E-04 -1.52043069E-03 -5.94181558E-05
 -3.77183236E-03 -5.14123663E-04 -1.02595165E-04 -3.11957048E-05 -7.68684975E-03
 -8.16358514E-03 -9.39052926E-03  3.59941694E-04  1.67012995E-05  1.83386807E-05
 -1.74685949E-04 -6.84202562E-05 -2.67543558E-05 -5.78214362E-05 -1.11286175E-06
  1.18244942E-04  1.21351698E-04  6.96502451E-04 -2.23344840E-05 -1.09138786E-04
 -7.98990653E-05 -2.91419990E-05  1.87342036E-05 -1.14828943E-06  1.02682438E-05
 -1.98483682E-05  2.09801309E-04 -1.15254308E-04  2.84707544E-05  3.44866487E-06
 -2.60605975E-04  1.19360055E-03 -4.31858928E-04 -3.29748493E-05 -6.80160182E-04
  7.46308594E-05  2.70163694E-04  4.51290348E-04  3.70261199E-05 -1.60421639E-05
 -2.08492227E-01  4.72890585E-01  9.32252894E-02  5.53325741E-02  3.43320786E-03
  4.19083676E-01  4.67139368E-02  2.55992981E-02  1.60809896E-03  2.42699669E-02
  1.22816564E-02  8.74798232E-03  1.05911466E-02  7.00737831E-04  4.09519125E-04
 -8.28046206E-02  1.60024788E-01 -8.07706280E-02 -6.18723853E-02 -4.23910633E-03
  2.88896168E-02  6.25048339E-03 -2.87846689E-04  1.11865491E-03  9.04603485E-03
 -4.96954721E-03 -1.68408493E-02  1.77678573E-02  8.73362036E-04  6.47675425E-04
 -2.08192045E-02  4.62069653E-02 -4.88594696E-03 -2.80146326E-02  4.79641716E-04
  3.78173053E-02 -4.63292482E-03 -1.47223350E-02 -1.03224991E-04 -1.46141412E-03
  7.03288496E-03 -3.58489837E-04  2.31443802E-03 -1.14868337E-04 -1.02076492E-04
 -5.10344379E-02  1.13962758E-01 -2.84109869E-02  8.80078607E-03  6.40086093E-04
  1.02939920E-01 -2.25599980E-02  4.63910987E-03  2.02393423E-04  1.21398211E-02
  1.41684765E-03  1.14153133E-03 -3.81503221E-03 -2.76051748E-04  6.69883681E-05
  6.68597934E-02 -1.52144363E-01 -1.48710200E-02 -1.48884296E-02 -1.04644107E-03
 -1.41578453E-01 -7.43882450E-04 -5.88281364E-03 -6.72480936E-04 -1.16851951E-03
 -4.13528364E-03 -3.25253005E-03 -6.79961797E-04 -1.03360049E-04 -1.21631022E-04
 -3.96178871E-02  7.88104852E-02  1.21095975E-01 -7.14104901E-03 -1.72120078E-03
  1.88938110E-02 -6.09296098E-03 -3.55717346E-03  5.20605870E-04  3.60748358E-03
 -3.59586119E-03 -6.76565530E-03 -2.06495769E-02 -1.07831519E-03 -1.12594367E-05
 -1.80612453E-02  3.94023846E-02  1.03435811E-02 -2.10105019E-02  4.63720414E-04
  3.44803075E-02  8.05006616E-03 -9.28801791E-03  4.83616517E-05 -9.40666317E-04
  3.61679237E-03 -6.33954423E-04 -3.48990783E-03  1.31075991E-04 -1.16177505E-04
 -2.15738162E-01  4.84642720E-01 -7.45396078E-02  3.36687262E-02  2.46423890E-03
  4.59080473E-01 -4.33214174E-02  1.89097737E-02  1.49434154E-03  2.26271687E-02
  8.85925786E-03  7.11937313E-03 -8.26242625E-03 -6.70803525E-04  3.05159241E-04
  3.75750486E-02 -8.58772392E-02  1.32124034E-03  2.59753233E-02 -4.96649704E-04
 -8.83581003E-02  5.46422101E-03  2.07596275E-02 -3.29567710E-04 -3.38060954E-04
  2.21526734E-03 -1.85608829E-03  5.10973700E-03 -3.47102950E-05  1.57223785E-04
 -8.82389875E-02  1.92223035E-01 -3.13087944E-03  2.26013616E-01 -5.15919989E-03
  3.24529965E-02  3.35775844E-04 -1.10413271E-02  1.18595084E-03 -2.69192179E-02
  2.27087921E-02 -1.37900490E-02 -2.38041060E-03 -1.79740853E-05 -1.88124968E-03
 -1.95235929E-01  4.32224282E-01  1.18030644E-04 -1.56197758E-01  5.16564427E-03
  3.98850157E-01 -7.95159263E-04 -5.65722984E-02  1.72077666E-03 -9.49466001E-03
  1.07225766E-02 -5.64776844E-03 -5.54872957E-05  3.84172856E-06 -7.72238089E-04
  4.53583806E-02 -1.02207172E-01 -3.75154062E-03  1.97276062E-02 -3.08549418E-04
 -1.09324748E-01 -4.45825050E-03  1.49514511E-02 -3.06447390E-04  5.96501861E-04
  5.51326411E-04 -1.53752889E-03 -3.81678448E-03  4.10008250E-06  9.82735859E-05
  7.96139982E-02 -1.65407532E-01  3.88546521E-01  1.87006525E-01  1.42711210E-02
 -2.86532737E-01  2.21783242E-01  1.02128320E-01  7.91218068E-03  2.46941942E-02
  3.67392962E-03 -2.66697174E-04  1.26503812E-02  1.09102442E-03  4.74220319E-04
 -1.23043726E-01  2.99293913E-01 -7.60382724E-02 -1.92624187E-01 -1.98069654E-03
  1.63339327E-01  5.57505416E-03 -2.33826728E-02  2.16678151E-03  4.12939907E-03
 -1.30836055E-02 -1.32990678E-02  9.56605482E-03  3.93665992E-04  9.21688541E-04
  5.67749649E-02 -1.26008403E-01 -1.43209103E-02 -5.25469103E-02  3.60041917E-04
 -1.63655329E-01 -1.06836205E-02 -3.07923253E-02 -1.18722602E-04  6.08541955E-04
  1.12950929E-02  1.63812399E-03  2.58689378E-03 -1.22406757E-04 -6.94106509E-05
  4.80091913E-02 -9.83620111E-02 -2.04405534E-01  4.18288838E-02  5.58402115E-03
 -1.72771160E-01 -1.24334021E-01  2.00574806E-02  2.95145591E-03  2.04941659E-02
  4.74476177E-04  1.14914761E-03 -4.65564081E-03 -5.76276034E-04  7.39587572E-05
  2.83792456E-02 -5.29192088E-02  1.47703676E-01  2.99262363E-01  1.35150428E-02
 -1.15813715E-01  7.38124078E-02  1.78652813E-01  8.29414380E-03  1.36524006E-04
  1.27436166E-02  1.31908016E-03  1.01663340E-02  5.30886647E-04  7.67419660E-04
  3.22793213E-02 -7.76333007E-02 -3.47548635E-01  3.87130083E-02  2.20421148E-04
 -6.02836946E-02 -4.28479172E-02  2.94971749E-02 -2.92078083E-04  3.15223499E-03
  3.52510938E-05  9.08526105E-04  1.84376095E-02  1.36721725E-03 -1.56131519E-04
 -1.25895134E-02  3.00265809E-02 -1.16775779E-01  2.32187153E-02 -4.15278997E-04
  2.81689696E-02 -6.92644785E-02  1.52862749E-02 -5.12827759E-04  7.92163628E-04
 -2.16787081E-03  1.77173205E-04  1.33733226E-02 -4.78181725E-04  4.09496292E-05
 -5.91867072E-02  1.14390289E-01  3.62844392E-01 -2.11863617E-01 -1.36406646E-02
  2.32102081E-01  2.10792390E-01 -1.28163477E-01 -8.23031835E-03 -2.05894360E-02
 -9.17026016E-03 -3.30912566E-03  1.11220306E-02  8.76710317E-04 -5.06338714E-04
 -2.71419562E-04 -1.42387225E-04 -1.81911581E-02 -1.04041154E-02  4.98992315E-01
  2.33336326E-03 -1.10564547E-02 -5.60814041E-03  3.18989048E-01 -1.46667952E-03
 -5.63602397E-04  1.19294378E-03 -5.93538722E-04  2.27056818E-02  1.25493519E-02
 -3.11764330E-03  7.52071345E-03  7.68438865E-04  8.47021292E-04  2.98517073E-01
  3.28660120E-03 -2.31127879E-03 -3.90265521E-03  1.48664349E-01  3.26308683E-04
  2.33782348E-04 -1.73947301E-03  2.21730643E-04 -1.10336068E-02 -8.42687652E-03
 -5.54340760E-04 -3.32863700E-04  9.01442087E-04  5.69334873E-03  1.41780508E-01
  8.85178094E-03  1.43279615E-03 -6.17913021E-05  6.46243585E-02 -5.56583277E-04
 -1.08717598E-03  5.27624653E-05 -1.57206408E-04 -5.26296368E-04 -1.25996707E-02
 -2.05534220E-04 -9.11193612E-04  6.82144856E-03 -1.05216418E-03  2.19629096E-01
  4.20121960E-03  3.59201366E-03  8.96033663E-04  1.35909365E-01 -1.14304492E-03
 -4.92260642E-04 -5.36515567E-05 -5.74803660E-05 -1.14630025E-02  3.76950725E-03
  5.09408789E-03 -4.68181358E-03  2.98747497E-01 -3.39485708E-01  7.27583476E-03
 -3.68237461E-02  1.81617564E-01 -2.19203079E-01  4.22682435E-03  1.75235908E-02
 -1.07821344E-02  1.33236274E-03 -9.36804841E-03  5.99952344E-04 -4.57937617E-04
  4.69709882E-02 -1.27231170E-01 -2.65789336E-02 -2.14255021E-01  7.47148633E-04
 -1.00319658E-01  1.83781231E-02 -1.26602283E-01 -2.84091332E-04 -1.08439574E-02
  2.29051497E-02  2.90192893E-03  1.06333002E-02 -1.52698672E-04  7.45086224E-04
 -9.02542120E-02  1.84819928E-01  8.88246157E-04  2.81390100E-01 -9.99641155E-03
  4.09786484E-01 -1.56032880E-03  1.10472647E-01 -2.91615830E-03 -8.68980112E-03
 -2.60869931E-02 -3.52279440E-03  1.26206074E-03 -1.08195269E-04  9.06754680E-04
 -3.05648516E-03  1.14953869E-02 -1.71035534E-02 -2.14892901E-01 -3.75180218E-03
 -1.08230538E-02 -3.36777424E-03 -1.38727714E-01 -3.24265284E-03  4.60713881E-03
 -1.79604506E-03  1.95707318E-03  9.45574008E-03  1.73493814E-04 -3.67035737E-04
 -1.91308667E-04 -2.69925134E-04 -1.98985533E-02  4.13922183E-02 -3.56921019E-01
  1.72011844E-03 -1.33122252E-02  2.88789568E-02 -2.52896873E-01 -1.03405083E-03
  1.26974714E-03 -1.13621562E-03  8.33042718E-04 -1.07952272E-02 -7.01580197E-03
  1.44155438E-03 -4.66880646E-03  3.10190375E-03 -1.61477533E-02  9.30772263E-02
 -1.17650160E-03  5.76170092E-04 -4.82338977E-03  5.99866275E-02  1.46608604E-03
 -5.58303676E-04 -2.14689595E-04 -4.25913188E-03  2.88907445E-02  3.23048440E-03
 -4.82004889E-03  9.58549387E-03 -1.32397961E-02  2.82155411E-02  7.81455118E-02
  2.31298400E-02 -1.12788700E-02  1.33739404E-02  4.23868109E-02 -3.49086253E-04
 -2.07218569E-03  1.26822182E-04  9.35432708E-04  2.47108037E-03 -5.62618825E-03
  7.97549126E-04 -1.07461556E-03 -2.60586634E-02 -4.69115442E-02  5.50112304E-01
 -3.59750232E-03 -1.71974514E-02 -3.20648929E-02  3.77042815E-01  1.16151692E-03
 -1.30070472E-03  1.25005176E-03  1.45348355E-03 -1.96078256E-02  8.28712199E-03
 -1.98480500E-03 -8.22110382E-03  2.70366618E-01 -3.26112010E-01 -4.34128582E-02
  5.20304665E-02  1.88089850E-01 -2.08567227E-01 -2.98350538E-02  5.09424559E-03
 -1.53934746E-02 -5.72103971E-03 -3.12127425E-03 -9.36862058E-04 -1.21533445E-03
 -2.28149373E-02  6.41399635E-02 -3.15289276E-02  1.49397676E-01  1.15658838E-02
  2.02178034E-02  6.90978694E-02  2.32484631E-02  8.15710938E-03 -1.77916172E-02
  8.01470627E-03 -1.61665335E-03  2.76912436E-02  3.33665999E-03  3.30713339E-04
  4.06236593E-02 -8.58017672E-02  7.41429003E-02 -2.30444598E-01  2.10209160E-02
 -1.70655947E-01  4.25682589E-02 -1.19300392E-01  1.16448987E-02  1.99894260E-04
  1.48304034E-02 -3.95062295E-04 -1.78923474E-03  2.25048609E-04 -1.54804883E-03
 -4.83596101E-03  1.52927125E-02  3.60708106E-01  2.50694143E-01  5.73344485E-02
 -1.30304431E-02  2.45241076E-01  1.63412195E-01  3.86163974E-02 -1.16157880E-02
  1.17147513E-02  4.04060417E-03 -5.40352976E-03 -1.66438913E-03  1.30034503E-03
 -5.02978774E-03  3.91844319E-03  5.13510658E-02  2.10567776E-01  3.57102227E-03
  6.24767294E-02  3.99257218E-02  1.36115038E-01  3.30510292E-03 -4.62351288E-03
 -4.41476975E-03 -3.77215478E-03  2.54558820E-03  8.84604284E-05 -3.31581935E-05
  3.81388115E-02 -1.01995249E-01  1.87914508E-02 -1.96341498E-01 -3.10129302E-03
 -3.64133038E-02  3.99411941E-02  1.03615783E-01 -1.93596084E-03  3.62647579E-02
 -1.99881390E-02  1.35754032E-03  1.57027688E-02  4.55635490E-04 -3.66200459E-04
 -4.53626908E-02  1.06693921E-01  6.75615327E-02  3.48326458E-01 -2.03509386E-02
  1.18301796E-01  4.19758097E-02  2.10390262E-01 -1.44097887E-02  7.76130535E-03
 -1.81443562E-02  4.40259102E-03 -3.58197422E-03  1.06213939E-04  1.62925963E-03
  4.56550185E-04  3.70546424E-03  1.04324455E-01  4.81849039E-01  1.71418699E-02
 -2.94895719E-03  6.97183814E-02  3.15672592E-01  1.19886541E-02 -4.54545408E-03
  8.20622538E-03  1.68185073E-03 -9.23154333E-03 -3.89731223E-04  5.05852201E-04
 -2.40349854E-04  2.90633249E-04  4.59053649E-03  1.00899814E-02 -2.25040434E-01
  2.16123676E-03  4.53327744E-03  5.22636750E-03 -1.63748981E-01  1.51075723E-04
 -2.66143712E-04 -3.25581673E-04 -5.35964427E-05 -3.29591193E-03  1.20969694E-03
 -1.76711801E-03  2.59804023E-03 -6.42755689E-05 -4.35534110E-03  2.57940515E-01
  1.76544794E-02 -4.05578201E-04  1.18820854E-02  9.76126282E-02  1.01538745E-04
  3.65774876E-04 -7.26610165E-04  8.77442259E-05 -2.19295486E-03  3.76777223E-02
 -2.60581845E-04  2.01917371E-03  7.65184551E-04  3.28989385E-02  5.12956536E-01
 -8.39362982E-03  6.81991991E-04  2.44770247E-02  3.48466074E-01  8.04974122E-04
 -2.11369989E-03  2.61274882E-03 -7.25619838E-05 -3.44838315E-04 -3.14769992E-02
 -2.00900940E-04  2.04634413E-04 -6.18410706E-03  1.04054148E-02 -2.74963513E-01
  1.74216365E-03 -5.35204996E-03  5.63180560E-03 -1.98124004E-01  2.74689068E-04
 -2.36288100E-04 -4.13808378E-04  5.45415021E-05  4.79726808E-03  9.45808190E-04
 -1.06314815E-02  1.90551788E-02  3.13959040E-02  1.67570400E-01  2.08281346E-03
  8.53253102E-02  3.16704799E-02  1.27115308E-01  2.46140120E-03 -4.46936323E-03
 -2.17645660E-03 -2.13147104E-03  4.66444120E-03 -9.60666368E-05  2.25742597E-04
 -1.62779544E-03  5.37866248E-03  7.66085982E-02  3.99229242E-03 -5.88074710E-04
 -1.42711951E-02  1.16208114E-01 -4.46083754E-03  2.90346263E-04 -3.40596472E-03
  1.76364927E-03 -2.28291234E-04  4.17662521E-02 -2.63674824E-04  5.68950551E-05
 -7.98834070E-04  2.75656646E-03  6.18406149E-01 -5.86768114E-03  8.20277232E-04
  6.04572989E-03  4.04045052E-01 -5.54321269E-03  6.23403138E-04 -6.77137000E-04
  9.11489403E-04  4.56310709E-04 -2.70096278E-02  1.06517613E-03 -2.97429928E-05
  1.02374922E-02 -1.96296689E-02  7.26141664E-02 -2.08728799E-01 -1.77214329E-03
 -7.72354951E-02  6.63646086E-02 -1.51953329E-01 -2.34748492E-03 -2.78547976E-04
  3.05689752E-03  1.76819410E-03  5.55059964E-03  9.93477585E-05 -2.53431392E-04
  1.08761714E-02 -2.11690892E-02 -5.47582752E-02 -1.58314637E-02 -2.23598360E-01
 -8.66509852E-02 -5.99395094E-02 -2.29673179E-02 -1.86949777E-01  1.30486622E-03
  4.61065440E-04  4.73931376E-03 -1.48129654E-03  1.52094816E-02  6.97696417E-03
 -3.34353788E-02  6.12364519E-02  1.56958084E-02 -5.30699813E-02  6.11280745E-01
  2.74311247E-01  1.21912177E-03 -2.14222450E-02  4.32162567E-01 -7.85129374E-03
 -5.33337238E-03  6.92066334E-03 -6.65665112E-04  7.18286045E-04 -2.40488788E-02
  6.85056741E-03 -1.29856979E-02 -4.84326352E-03  2.68359307E-02 -4.04590913E-01
 -6.65891581E-02 -4.30531561E-03  4.14054428E-02 -3.82630951E-01  1.48077695E-03
 -1.62342227E-03  4.13688255E-03 -1.91271362E-04  3.99020941E-04 -5.03914361E-03
  1.08801770E-02 -2.22745137E-02  6.63835190E-02 -1.67629300E-02 -1.96665942E-01