 Entering Gaussian System, Link 0=g16
 Input=HCF3_ADMP_600K.gjf
 Output=HCF3_ADMP_600K.log
 Initial command:
 /apps/easybuild-2022/easybuild/software/Compiler/NVHPC/22.11-CUDA-11.7.0/Gaussian/g16c01-CUDA-11.7.0/g16/l1.exe "/tmp/Gau-168292.inp" -scrdir="/tmp/"
 Default is to use a total of   4 processors:
                                4 via shared-memory
                                1 via Linda
 Entering Link 1 = /apps/easybuild-2022/easybuild/software/Compiler/NVHPC/22.11-CUDA-11.7.0/Gaussian/g16c01-CUDA-11.7.0/g16/l1.exe PID=    168293.
  
 Copyright (c) 1988-2019, Gaussian, Inc.  All Rights Reserved.
  
 This is part of the Gaussian(R) 16 program.  It is based on
 the Gaussian(R) 09 system (copyright 2009, Gaussian, Inc.),
 the Gaussian(R) 03 system (copyright 2003, Gaussian, Inc.),
 the Gaussian(R) 98 system (copyright 1998, Gaussian, Inc.),
 the Gaussian(R) 94 system (copyright 1995, Gaussian, Inc.),
 the Gaussian 92(TM) system (copyright 1992, Gaussian, Inc.),
 the Gaussian 90(TM) system (copyright 1990, Gaussian, Inc.),
 the Gaussian 88(TM) system (copyright 1988, Gaussian, Inc.),
 the Gaussian 86(TM) system (copyright 1986, Carnegie Mellon
 University), and the Gaussian 82(TM) system (copyright 1983,
 Carnegie Mellon University). Gaussian is a federally registered
 trademark of Gaussian, Inc.
  
 This software contains proprietary and confidential information,
 including trade secrets, belonging to Gaussian, Inc.
  
 This software is provided under written license and may be
 used, copied, transmitted, or stored only in accord with that
 written license.
  
 The following legend is applicable only to US Government
 contracts under FAR:
  
                    RESTRICTED RIGHTS LEGEND
  
 Use, reproduction and disclosure by the US Government is
 subject to restrictions as set forth in subparagraphs (a)
 and (c) of the Commercial Computer Software - Restricted
 Rights clause in FAR 52.227-19.
  
 Gaussian, Inc.
 340 Quinnipiac St., Bldg. 40, Wallingford CT 06492
  
  
 ---------------------------------------------------------------
 Warning -- This program may not be used in any manner that
 competes with the business of Gaussian, Inc. or will provide
 assistance to any competitor of Gaussian, Inc.  The licensee
 of this program is prohibited from giving any competitor of
 Gaussian, Inc. access to this program.  By using this program,
 the user acknowledges that Gaussian, Inc. is engaged in the
 business of creating and licensing software in the field of
 computational chemistry and represents and warrants to the
 licensee that it is not a competitor of Gaussian, Inc. and that
 it will not use this program in any manner prohibited above.
 ---------------------------------------------------------------
  

 Cite this work as:
 Gaussian 16, Revision C.01,
 M. J. Frisch, G. W. Trucks, H. B. Schlegel, G. E. Scuseria, 
 M. A. Robb, J. R. Cheeseman, G. Scalmani, V. Barone, 
 G. A. Petersson, H. Nakatsuji, X. Li, M. Caricato, A. V. Marenich, 
 J. Bloino, B. G. Janesko, R. Gomperts, B. Mennucci, H. P. Hratchian, 
 J. V. Ortiz, A. F. Izmaylov, J. L. Sonnenberg, D. Williams-Young, 
 F. Ding, F. Lipparini, F. Egidi, J. Goings, B. Peng, A. Petrone, 
 T. Henderson, D. Ranasinghe, V. G. Zakrzewski, J. Gao, N. Rega, 
 G. Zheng, W. Liang, M. Hada, M. Ehara, K. Toyota, R. Fukuda, 
 J. Hasegawa, M. Ishida, T. Nakajima, Y. Honda, O. Kitao, H. Nakai, 
 T. Vreven, K. Throssell, J. A. Montgomery, Jr., J. E. Peralta, 
 F. Ogliaro, M. J. Bearpark, J. J. Heyd, E. N. Brothers, K. N. Kudin, 
 V. N. Staroverov, T. A. Keith, R. Kobayashi, J. Normand, 
 K. Raghavachari, A. P. Rendell, J. C. Burant, S. S. Iyengar, 
 J. Tomasi, M. Cossi, J. M. Millam, M. Klene, C. Adamo, R. Cammi, 
 J. W. Ochterski, R. L. Martin, K. Morokuma, O. Farkas, 
 J. B. Foresman, and D. J. Fox, Gaussian, Inc., Wallingford CT, 2019.
 
 ******************************************
 Gaussian 16:  ES64L-G16RevC.01  3-Jul-2019
                19-Mar-2025 
 ******************************************
 %chk=HCF3_ADMP TRJTRY RSTF=10_600K.chk
 %mem=8GB
 %nprocshared=8
 Will use up to    8 processors via shared memory.
 -----------------------------------
 # B3LYP/6-31G(d) ADMP int=ultrafine
 -----------------------------------
 1/26=4,29=20000,38=1,172=1/1,21;
 2/12=2,17=6,18=5,29=2,40=1/2;
 3/5=1,6=6,7=1,11=2,25=1,30=1,65=-1,71=1,74=-5,75=-5,89=400,90=600/1,2,3;
 4//1;
 5/5=2,14=200,38=5/2;
 6/7=2,8=2,9=2,10=2,28=1/1;
 7/7=1,127=-100/1,2,3,16;
 1/26=4/21(2);
 2/29=1/2;
 99/12=1/99;
 2/29=1/2;
 3/5=1,6=6,7=1,11=2,25=1,30=1,65=-1,71=1,74=-5,75=-5,89=400,90=600/1,2,3;
 5/5=2,14=100/2;
 7/7=1,127=-100/1,2,3,16;
 1/26=4/21(-4);
 2/29=1/2;
 6/7=2,8=2,9=2,10=2,19=2,28=1/1;
 99/9=1,12=1/99;
 ---------------------------------------------------------
 HCF3 ADMP thermal decomposition simulation targeting 600K
 ---------------------------------------------------------
 Symbolic Z-matrix:
 Charge =  0 Multiplicity = 1
 C                     0.00394  -0.00032   0.07165 
 F                     1.10821  -0.55087  -0.47619 
 F                    -0.10983   1.25915  -0.40102 
 F                    -1.06625  -0.70269  -0.35732 
 H                     0.06394  -0.00527   1.16289 
 
 TRJ-TRJ-TRJ-TRJ-TRJ-TRJ-TRJ-TRJ-TRJ-TRJ-TRJ-TRJ-TRJ-TRJ-TRJ-TRJ-TRJ-TRJ
 ------------------------------------------------------------------------
 INPUT DATA FOR L121
 ------------------------------------------------------------------------

 General parameters:
 Maximum Steps                =      50
 Random Number Generator Seed =    398465
 Time Step                    =  0.10000 femtosec
 Ficticious electronic mass   =  0.10000 amu
 MW individual basis funct.   = True 
 Initial nuclear kin. energy  =  0.10000 hartree
 Initial electr. kin. energy  =  0.00000 hartree
   Initial electr. KE scheme  =  0
 Multitime step - NDtrC       =       1
 Multitime step - NDtrP       =       1
 No Thermostats chosen to control nuclear temperature

 Integration parameters:

 Follow Rxn Path (DVV)        = False
 Constraint Scheme            =      10
 Projection of angular mom.   = True 
 Rotate density with nuclei   = True 
 ------------------------------------------------------------------------
 TRJ-TRJ-TRJ-TRJ-TRJ-TRJ-TRJ-TRJ-TRJ-TRJ-TRJ-TRJ-TRJ-TRJ-TRJ-TRJ-TRJ-TRJ
 ---------------------------------------------------------------------------------------------------
                            Z-MATRIX (ANGSTROMS AND DEGREES)
   CD    Cent   Atom    N1       Length/X        N2       Alpha/Y        N3        Beta/Z          J
 ---------------------------------------------------------------------------------------------------
      1      1  C        0   0.003939         -0.000324          0.071647
      2      2  F        0   1.108205         -0.550870         -0.476188
      3      3  F        0  -0.109833          1.259146         -0.401023
      4      4  F        0  -1.066249         -0.702686         -0.357321
      5      5  H        0   0.063937         -0.005266          1.162885
 ---------------------------------------------------------------------------------------------------
                         Z-Matrix orientation:                         
 ---------------------------------------------------------------------
 Center     Atomic      Atomic             Coordinates (Angstroms)
 Number     Number       Type             X           Y           Z
 ---------------------------------------------------------------------
      1          6           0        0.003939   -0.000324    0.071647
      2          9           0        1.108205   -0.550870   -0.476188
      3          9           0       -0.109833    1.259146   -0.401023
      4          9           0       -1.066249   -0.702686   -0.357321
      5          1           0        0.063937   -0.005266    1.162885
 ---------------------------------------------------------------------
                    Distance matrix (angstroms):
                    1          2          3          4          5
     1  C    0.000000
     2  F    1.350047   0.000000
     3  F    1.350047   2.182985   0.000000
     4  F    1.350048   2.182986   2.182986   0.000000
     5  H    1.092897   2.018598   2.018599   2.018599   0.000000
 Symmetry turned off by external request.
 Stoichiometry    CHF3
 Framework group  C3V[C3(CH),3SGV(F)]
 Deg. of freedom     3
 Full point group                 C3V     NOp   6
 Rotational constants (GHZ):          10.1477868          10.1477792           5.5821097
 Standard basis: 6-31G(d) (6D, 7F)
    62 basis functions,   116 primitive gaussians,    62 cartesian basis functions
    17 alpha electrons       17 beta electrons
       nuclear repulsion energy       132.3878947590 Hartrees.
 NAtoms=    5 NActive=    5 NUniq=    5 SFac= 1.00D+00 NAtFMM=   60 NAOKFM=F Big=F
 Integral buffers will be    131072 words long.
 Raffenetti 2 integral format.
 Two-electron integral symmetry is turned off.
 One-electron integrals computed using PRISM.
 NBasis=    62 RedAO= T EigKep=  2.77D-03  NBF=    62
 NBsUse=    62 1.00D-06 EigRej= -1.00D+00 NBFU=    62
 ExpMin= 1.61D-01 ExpMax= 7.00D+03 ExpMxC= 1.05D+03 IAcc=3 IRadAn=         5 AccDes= 0.00D+00
 Harris functional with IExCor=  402 and IRadAn=       5 diagonalized for initial guess.
 HarFok:  IExCor=  402 AccDes= 0.00D+00 IRadAn=         5 IDoV= 1 UseB2=F ITyADJ=14
 ICtDFT=  3500011 ScaDFX=  1.000000  1.000000  1.000000  1.000000
 FoFCou: FMM=F IPFlag=           0 FMFlag=      100000 FMFlg1=           0
         NFxFlg=           0 DoJE=T BraDBF=F KetDBF=T FulRan=T
         wScrn=  0.000000 ICntrl=       500 IOpCl=  0 I1Cent=   200000004 NGrid=           0
         NMat0=    1 NMatS0=      1 NMatT0=    0 NMatD0=    1 NMtDS0=    0 NMtDT0=    0
 Symmetry not used in FoFCou.
 Keep R1 ints in memory in canonical form, NReq=8989199.
 Requested convergence on RMS density matrix=1.00D-08 within 128 cycles.
 Requested convergence on MAX density matrix=1.00D-06.
 Requested convergence on             energy=1.00D-06.
 No special actions if energy rises.
 Integral accuracy reduced to 1.0D-05 until final iterations.
 Initial convergence to 1.0D-05 achieved.  Increase integral accuracy.
 SCF Done:  E(RB3LYP) =  -338.225672022     A.U. after   11 cycles
            NFock= 11  Conv=0.31D-08     -V/T= 2.0069

 **********************************************************************

            Population analysis using the SCF Density.

 **********************************************************************

 Alpha  occ. eigenvalues --  -24.72819 -24.72819 -24.72819 -10.43503  -1.30300
 Alpha  occ. eigenvalues --   -1.21729  -1.21729  -0.71374  -0.59760  -0.58052
 Alpha  occ. eigenvalues --   -0.58052  -0.45715  -0.45715  -0.42237  -0.42237
 Alpha  occ. eigenvalues --   -0.40150  -0.39262
 Alpha virt. eigenvalues --    0.11412   0.14579   0.14579   0.20712   0.46484
 Alpha virt. eigenvalues --    0.46484   0.49841   0.68876   0.79456   1.05037
 Alpha virt. eigenvalues --    1.05037   1.06810   1.06810   1.14215   1.31831
 Alpha virt. eigenvalues --    1.34106   1.34107   1.37879   1.37879   1.40318
 Alpha virt. eigenvalues --    1.59938   1.59938   1.68690   1.79974   1.79974
 Alpha virt. eigenvalues --    1.82511   1.84709   1.84709   1.99091   1.99980
 Alpha virt. eigenvalues --    1.99980   2.05299   2.18282   2.21540   2.21540
 Alpha virt. eigenvalues --    2.62391   2.65193   2.65193   2.96511   3.00640
 Alpha virt. eigenvalues --    3.00640   4.07226   4.07227   4.27539   4.95622
          Condensed to atoms (all electrons):
               1          2          3          4          5
     1  C    4.142750   0.286901   0.286905   0.286903   0.363195
     2  F    0.286901   9.083907  -0.034042  -0.034042  -0.046580
     3  F    0.286905  -0.034042   9.083901  -0.034042  -0.046580
     4  F    0.286903  -0.034042  -0.034042   9.083903  -0.046580
     5  H    0.363195  -0.046580  -0.046580  -0.046580   0.641464
 Mulliken charges:
               1
     1  C    0.633347
     2  F   -0.256144
     3  F   -0.256142
     4  F   -0.256142
     5  H    0.135081
 Sum of Mulliken charges =  -0.00000
 Mulliken charges with hydrogens summed into heavy atoms:
               1
     1  C    0.768428
     2  F   -0.256144
     3  F   -0.256142
     4  F   -0.256142
 Electronic spatial extent (au):  <R**2>=            220.4306
 Charge=             -0.0000 electrons
 Dipole moment (field-independent basis, Debye):
    X=              0.0834    Y=             -0.0069    Z=              1.5165  Tot=              1.5188
 Quadrupole moment (field-independent basis, Debye-Ang):
   XX=            -21.3919   YY=            -21.3991   ZZ=            -19.0002
   XY=             -0.0006   XZ=              0.1319   YZ=             -0.0109
 Traceless Quadrupole moment (field-independent basis, Debye-Ang):
   XX=             -0.7949   YY=             -0.8021   ZZ=              1.5969
   XY=             -0.0006   XZ=              0.1319   YZ=             -0.0109
 Octapole moment (field-independent basis, Debye-Ang**2):
  XXX=              0.6306  YYY=             -1.0803  ZZZ=             14.7417  XYY=              0.4947
  XXY=              0.9848  XXZ=              5.1262  XZZ=              0.2473  YZZ=             -0.0175
  YYZ=              5.0954  XYZ=             -0.0543
 Hexadecapole moment (field-independent basis, Debye-Ang**3):
 XXXX=            -79.3364 YYYY=            -79.4769 ZZZZ=            -31.2719 XXXY=             -0.0003
 XXXZ=              1.2996 YYYX=             -0.0079 YYYZ=             -0.1413 ZZZX=              1.3439
 ZZZY=             -0.1104 XXYY=            -26.4683 XXZZ=            -18.5450 YYZZ=            -18.5730
 XXYZ=             -0.0024 YYXZ=              0.4426 ZZXY=             -0.0058
 N-N= 1.323878947590D+02 E-N=-1.068806027306D+03  KE= 3.359040401499D+02
 Calling FoFJK, ICntrl=      2127 FMM=F ISym2X=0 I1Cent= 0 IOpClX= 0 NMat=1 NMatS=1 NMatT=0.
 -------------------------------------------------------------------
 Center     Atomic                   Forces (Hartrees/Bohr)
 Number     Number              X              Y              Z
 -------------------------------------------------------------------
      1        6          -0.000805391    0.000066257   -0.014648089
      2        9          -0.004567620    0.002347287    0.005489329
      3        9           0.000659679   -0.005418693    0.005164181
      4        9           0.004767258    0.003000691    0.004977361
      5        1          -0.000053926    0.000004459   -0.000982782
 -------------------------------------------------------------------
 Cartesian Forces:  Max     0.014648089 RMS     0.005070603
 TRJ-TRJ-TRJ-TRJ-TRJ-TRJ-TRJ-TRJ-TRJ-TRJ-TRJ-TRJ-TRJ-TRJ-TRJ-TRJ-TRJ-TRJ

 ADMP step      0
 Frobenius norm of [F,P] =     2.082063D-13
 Current gradient on entry to l121
 I=    1 X=   8.053908985207D-04 Y=  -6.625684419752D-05 Z=   1.464808900061D-02
 I=    2 X=   4.567619838870D-03 Y=  -2.347286632279D-03 Z=  -5.489328722746D-03
 I=    3 X=  -6.596787083513D-04 Y=   5.418693459728D-03 Z=  -5.164180638677D-03
 I=    4 X=  -4.767257974665D-03 Y=  -3.000690653852D-03 Z=  -4.977361405729D-03
 I=    5 X=   5.392594562353D-05 Y=  -4.459329405508D-06 Z=   9.827817665249D-04

 Summary information for step      0
 Time (fs)     0.000000
 EKinC      =      0.1000000; EKinPA =      0.0000000; EKinPB =      0.0000000
 EKin       =      0.1000000; EPot   =   -338.2256720; ETot   =   -338.1256720
 ETot-EKinP =   -338.1256720
 Integrand for the Velocity-Velocity Auto-Correlation  Function =   1.875165883249D-01
 Angular momentum
   JX =  0.6252628509D-14  JY = -0.1069024447D-13  JZ =  0.1104326033D-13
 Jtot =  0.1659307954D-13 H-BAR;  J (Quantum Number) =  0.0000000000D+00
 Total energy  -3.381256720D+02 A.U.
 Total angular momentum   1.659308D-14 h-bar
 Tr(PA)-NA =  2.132D-14
 Tr(PA**2-PA) =  4.974D-14
 Tr[(PA**2-PA)**2] =  2.861D-16
 Cartesian coordinates:
 I=    1 X=   3.923957569363D-02 Y=  -3.230936621531D-03 Z=   7.136888007927D-01
 I=    2 X=   2.125999884363D+00 Y=  -1.043612095596D+00 Z=  -3.215693106584D-01
 I=    3 X=  -1.757583449504D-01 Y=   2.376822425484D+00 Z=  -1.795280465055D-01
 I=    4 X=  -1.983122646102D+00 Y=  -1.330502756923D+00 Z=  -9.694323540972D-02
 I=    5 X=   1.526193637153D-01 Y=  -1.256996312913D-02 Z=   2.775829757511D+00
 MW Cartesian velocity:
 I=    1 X=   1.028046656729D+14 Y=   1.138425506462D+14 Z=   1.189914715765D+14
 I=    2 X=   7.776489003971D+13 Y=  -8.416714560041D+13 Z=  -2.125099833826D+13
 I=    3 X=  -6.408461654297D+13 Y=   6.314535394745D+13 Z=  -3.076081376944D+13
 I=    4 X=  -1.362195717917D+14 Y=  -6.745977067844D+13 Z=  -1.001635658281D+14
 I=    5 X=   1.772958431907D+14 Y=  -8.662356014994D+12 Z=   2.501140034746D+14
 TRJ-TRJ-TRJ-TRJ-TRJ-TRJ-TRJ-TRJ-TRJ-TRJ-TRJ-TRJ-TRJ-TRJ-TRJ-TRJ-TRJ-TRJ
                          Input orientation:                          
 ---------------------------------------------------------------------
 Center     Atomic      Atomic             Coordinates (Angstroms)
 Number     Number       Type             X           Y           Z
 ---------------------------------------------------------------------
      1          6           0        0.022335    0.000029    0.379483
      2          9           0        1.125974   -0.553277   -0.170424
      3          9           0       -0.093785    1.258526   -0.095375
      4          9           0       -1.051076   -0.704890   -0.052516
      5          1           0        0.090108   -0.007108    1.482087
 ---------------------------------------------------------------------
                    Distance matrix (angstroms):
                    1          2          3          4          5
     1  C    0.000000
     2  F    1.351505   0.000000
     3  F    1.350107   2.185424   0.000000
     4  F    1.354897   2.185507   2.184776   0.000000
     5  H    1.104709   2.025368   2.030772   2.035733   0.000000
 Symmetry turned off by external request.
 Stoichiometry    CHF3
 Framework group  C1[X(CHF3)]
 Deg. of freedom     9
 Full point group                 C1      NOp   1
 Rotational constants (GHZ):          10.1193496          10.1115903           5.5706079
 Standard basis: 6-31G(d) (6D, 7F)
    62 basis functions,   116 primitive gaussians,    62 cartesian basis functions
    17 alpha electrons       17 beta electrons
       nuclear repulsion energy       132.1547643150 Hartrees.
 NAtoms=    5 NActive=    5 NUniq=    5 SFac= 1.00D+00 NAtFMM=   60 NAOKFM=F Big=F
 Integral buffers will be    131072 words long.
 Raffenetti 2 integral format.
 Two-electron integral symmetry is turned off.
 One-electron integrals computed using PRISM.
 NBasis=    62 RedAO= T EigKep=  2.78D-03  NBF=    62
 NBsUse=    62 1.00D-06 EigRej= -1.00D+00 NBFU=    62
 Keep R1 ints in memory in canonical form, NReq=8989199.
 Requested convergence on RMS density matrix=1.00D-08 within 128 cycles.
 Requested convergence on MAX density matrix=1.00D-06.
 Requested convergence on             energy=1.00D-06.
 No special actions if energy rises.
 SCF Done:  E(RB3LYP) =  -338.224752991     A.U. after    1 cycles
            NFock=  1  Conv=0.20D+01     -V/T= 2.0070
 Calling FoFJK, ICntrl=      2127 FMM=F ISym2X=0 I1Cent= 0 IOpClX= 0 NMat=1 NMatS=1 NMatT=0.
 -------------------------------------------------------------------
 Center     Atomic                   Forces (Hartrees/Bohr)
 Number     Number              X              Y              Z
 -------------------------------------------------------------------
      1        6          -0.054478968   -0.059521398   -0.062079729
      2        9          -0.007004204    0.029031148    0.023414880
      3        9           0.020998814   -0.002646661    0.021740481
      4        9           0.046878395    0.031409927    0.040677173
      5        1          -0.006394037    0.001726983   -0.023752804
 -------------------------------------------------------------------
 Cartesian Forces:  Max     0.062079729 RMS     0.034806356
 TRJ-TRJ-TRJ-TRJ-TRJ-TRJ-TRJ-TRJ-TRJ-TRJ-TRJ-TRJ-TRJ-TRJ-TRJ-TRJ-TRJ-TRJ

 ADMP step      1
 Frobenius norm of [F,P] =     5.502402D-02
 Current gradient on entry to l121
 I=    1 X=   5.447896836299D-02 Y=   5.952139786340D-02 Z=   6.207972945041D-02
 I=    2 X=   7.004204474551D-03 Y=  -2.903114845416D-02 Z=  -2.341487971860D-02
 I=    3 X=  -2.099881442849D-02 Y=   2.646660578133D-03 Z=  -2.174048103136D-02
 I=    4 X=  -4.687839530379D-02 Y=  -3.140992679597D-02 Z=  -4.067717292430D-02
 I=    5 X=   6.394036894776D-03 Y=  -1.726983191426D-03 Z=   2.375280422385D-02

 Summary information for step      1
 Time (fs)     0.100000
 EKinC      =      0.0991095; EKinPA =      0.0000223; EKinPB =      0.0000223
 EKin       =      0.0991540; EPot   =   -338.2247530; ETot   =   -338.1255989
 ETot-EKinP =   -338.1256435
 Adiabaticity Index =    4.2608D-27
 Total Fictitiious Kinetic Energy =      0.0004455
 Integrand for the Velocity-Velocity Auto-Correlation  Function =   1.866792874246D-01
 Angular momentum
   JX =  0.1789215749D-14  JY = -0.3591930605D-14  JZ =  0.1326984035D-13
 Jtot =  0.1386333009D-13 H-BAR;  J (Quantum Number) =  0.0000000000D+00
 Total energy  -3.381255989D+02  Delta-E   7.307847D-05 A.U.
 Total angular momentum   1.386333D-14  Delta-A  -2.729749D-15 h-bar
 Tr(PA)-NA =  3.553D-15
 Tr(PA**2-PA) =  2.487D-14
 Tr[(PA**2-PA)**2] =  2.324D-16
 Cartesian coordinates:
 I=    1 X=   4.220697614194D-02 Y=   5.544061191918D-05 Z=   7.171180662833D-01
 I=    2 X=   2.127782881139D+00 Y=  -1.045542524232D+00 Z=  -3.220555081569D-01
 I=    3 X=  -1.772284459268D-01 Y=   2.378269803100D+00 Z=  -1.802325031889D-01
 I=    4 X=  -1.986246692433D+00 Y=  -1.332049714764D+00 Z=  -9.924001356107D-02
 I=    5 X=   1.702797366467D-01 Y=  -1.343281118800D-02 Z=   2.800739299312D+00
 MW Cartesian velocity:
 I=    1 X=   1.020590768583D+14 Y=   1.130406789519D+14 Z=   1.179529418419D+14
 I=    2 X=   7.762493279101D+13 Y=  -8.384787302212D+13 Z=  -2.095496813199D+13
 I=    3 X=  -6.385931718085D+13 Y=   6.304654241935D+13 Z=  -3.050694555736D+13
 I=    4 X=  -1.356766979169D+14 Y=  -6.709741277411D+13 Z=  -9.962017815775D+13
 I=    5 X=   1.771410282023D+14 Y=  -8.425856662400D+12 Z=   2.489507948856D+14
 TRJ-TRJ-TRJ-TRJ-TRJ-TRJ-TRJ-TRJ-TRJ-TRJ-TRJ-TRJ-TRJ-TRJ-TRJ-TRJ-TRJ-TRJ
                          Input orientation:                          
 ---------------------------------------------------------------------
 Center     Atomic      Atomic             Coordinates (Angstroms)
 Number     Number       Type             X           Y           Z
 ---------------------------------------------------------------------
      1          6           0        0.023883    0.001744    0.381272
      2          9           0        1.126916   -0.554292   -0.170676
      3          9           0       -0.094558    1.259291   -0.095743
      4          9           0       -1.052718   -0.705701   -0.053719
      5          1           0        0.099438   -0.007540    1.495151
 ---------------------------------------------------------------------
                    Distance matrix (angstroms):
                    1          2          3          4          5
     1  C    0.000000
     2  F    1.352961   0.000000
     3  F    1.350184   2.187852   0.000000
     4  F    1.359693   2.188014   2.186557   0.000000
     5  H    1.116478   2.032149   2.042900   2.052776   0.000000
 Symmetry turned off by external request.
 Stoichiometry    CHF3
 Framework group  C1[X(CHF3)]
 Deg. of freedom     9
 Full point group                 C1      NOp   1
 Rotational constants (GHZ):          10.0911644          10.0757505           5.5591757
 Standard basis: 6-31G(d) (6D, 7F)
    62 basis functions,   116 primitive gaussians,    62 cartesian basis functions
    17 alpha electrons       17 beta electrons
       nuclear repulsion energy       131.9247194851 Hartrees.
 NAtoms=    5 NActive=    5 NUniq=    5 SFac= 1.00D+00 NAtFMM=   60 NAOKFM=F Big=F
 Integral buffers will be    131072 words long.
 Raffenetti 2 integral format.
 Two-electron integral symmetry is turned off.
 One-electron integrals computed using PRISM.
 NBasis=    62 RedAO= T EigKep=  2.79D-03  NBF=    62
 NBsUse=    62 1.00D-06 EigRej= -1.00D+00 NBFU=    62
 Keep R1 ints in memory in canonical form, NReq=8989199.
 Requested convergence on RMS density matrix=1.00D-08 within 128 cycles.
 Requested convergence on MAX density matrix=1.00D-06.
 Requested convergence on             energy=1.00D-06.
 No special actions if energy rises.
 SCF Done:  E(RB3LYP) =  -338.222977692     A.U. after    1 cycles
            NFock=  1  Conv=0.20D+01     -V/T= 2.0071
 Calling FoFJK, ICntrl=      2127 FMM=F ISym2X=0 I1Cent= 0 IOpClX= 0 NMat=1 NMatS=1 NMatT=0.
 -------------------------------------------------------------------
 Center     Atomic                   Forces (Hartrees/Bohr)
 Number     Number              X              Y              Z
 -------------------------------------------------------------------
      1        6          -0.090742343   -0.101659796   -0.092267861
      2        9          -0.009126755    0.047532028    0.035769212
      3        9           0.034911906   -0.000510619    0.033351199
      4        9           0.076751197    0.051480115    0.065044658
      5        1          -0.011794005    0.003158273   -0.041897208
 -------------------------------------------------------------------
 Cartesian Forces:  Max     0.101659796 RMS     0.056398512
 TRJ-TRJ-TRJ-TRJ-TRJ-TRJ-TRJ-TRJ-TRJ-TRJ-TRJ-TRJ-TRJ-TRJ-TRJ-TRJ-TRJ-TRJ

 ADMP step      2
 Frobenius norm of [F,P] =     9.049650D-02
 Current gradient on entry to l121
 I=    1 X=   9.074234339536D-02 Y=   1.016597960643D-01 Z=   9.226786118941D-02
 I=    2 X=   9.126755038864D-03 Y=  -4.753202751300D-02 Z=  -3.576921217082D-02
 I=    3 X=  -3.491190599620D-02 Y=   5.106192052793D-04 Z=  -3.335119913170D-02
 I=    4 X=  -7.675119744128D-02 Y=  -5.148011500028D-02 Z=  -6.504465764892D-02
 I=    5 X=   1.179400500334D-02 Y=  -3.158272756368D-03 Z=   4.189720776203D-02

 Summary information for step      2
 Time (fs)     0.200000
 EKinC      =      0.0969306; EKinPA =      0.0002986; EKinPB =      0.0002986
 EKin       =      0.0975277; EPot   =   -338.2229777; ETot   =   -338.1254500
 ETot-EKinP =   -338.1260471
 Adiabaticity Index =    7.4553D-04
 Integrand for the Velocity-Velocity Auto-Correlation  Function =   1.846103762458D-01
 Angular momentum
   JX =  0.3036431163D-14  JY =  0.3848736697D-15  JZ = -0.8317584893D-14
 Jtot =  0.8862858478D-14 H-BAR;  J (Quantum Number) =  0.0000000000D+00
 Total energy  -3.381254500D+02  Delta-E   1.489785D-04 A.U.
 Total angular momentum   8.862858D-15  Delta-A  -5.000472D-15 h-bar
 Tr(PA)-NA = -3.553D-15
 Tr(PA**2-PA) = -9.729D-11
 Tr[(PA**2-PA)**2] =  9.274D-13
 Cartesian coordinates:
 I=    1 X=   4.513195924337D-02 Y=   3.295470020694D-03 Z=   7.204988170651D-01
 I=    2 X=   2.129561710217D+00 Y=  -1.047459461530D+00 Z=  -3.225308309405D-01
 I=    3 X=  -1.786885345019D-01 Y=   2.379715320805D+00 Z=  -1.809278599871D-01
 I=    4 X=  -1.989348181548D+00 Y=  -1.333581526734D+00 Z=  -1.015143147454D-01
 I=    5 X=   1.879097640690D-01 Y=  -1.424857964139D-02 Z=   2.825426247432D+00
 MW Cartesian velocity:
 I=    1 X=   1.001008793934D+14 Y=   1.108668035823D+14 Z=   1.158635829747D+14
 I=    2 X=   7.740837437228D+13 Y=  -8.307433103450D+13 Z=  -2.036017189604D+13
 I=    3 X=  -6.327922603841D+13 Y=   6.297962403416D+13 Z=  -3.001078678976D+13
 I=    4 X=  -1.343820945650D+14 Y=  -6.622694736288D+13 Z=  -9.833897932526D+13
 I=    5 X=   1.766988061555D+14 Y=  -7.771967621106D+12 Z=   2.458610670155D+14
 TRJ-TRJ-TRJ-TRJ-TRJ-TRJ-TRJ-TRJ-TRJ-TRJ-TRJ-TRJ-TRJ-TRJ-TRJ-TRJ-TRJ-TRJ
                          Input orientation:                          
 ---------------------------------------------------------------------
 Center     Atomic      Atomic             Coordinates (Angstroms)
 Number     Number       Type             X           Y           Z
 ---------------------------------------------------------------------
      1          6           0        0.025393    0.003417    0.383022
      2          9           0        1.127854   -0.555294   -0.170919
      3          9           0       -0.095322    1.260055   -0.096104
      4          9           0       -1.054339   -0.706498   -0.054903
      5          1           0        0.108736   -0.007928    1.508007
 ---------------------------------------------------------------------
                    Distance matrix (angstroms):
                    1          2          3          4          5
     1  C    0.000000
     2  F    1.354411   0.000000
     3  F    1.350287   2.190263   0.000000
     4  F    1.364398   2.190500   2.188320   0.000000
     5  H    1.128125   2.038873   2.054895   2.069646   0.000000
 Symmetry turned off by external request.
 Stoichiometry    CHF3
 Framework group  C1[X(CHF3)]
 Deg. of freedom     9
 Full point group                 C1      NOp   1
 Rotational constants (GHZ):          10.0633690          10.0404153           5.5478471
 Standard basis: 6-31G(d) (6D, 7F)
    62 basis functions,   116 primitive gaussians,    62 cartesian basis functions
    17 alpha electrons       17 beta electrons
       nuclear repulsion energy       131.6988078627 Hartrees.
 NAtoms=    5 NActive=    5 NUniq=    5 SFac= 1.00D+00 NAtFMM=   60 NAOKFM=F Big=F
 Integral buffers will be    131072 words long.
 Raffenetti 2 integral format.
 Two-electron integral symmetry is turned off.
 One-electron integrals computed using PRISM.
 NBasis=    62 RedAO= T EigKep=  2.80D-03  NBF=    62
 NBsUse=    62 1.00D-06 EigRej= -1.00D+00 NBFU=    62
 Keep R1 ints in memory in canonical form, NReq=8989199.
 Requested convergence on RMS density matrix=1.00D-08 within 128 cycles.
 Requested convergence on MAX density matrix=1.00D-06.
 Requested convergence on             energy=1.00D-06.
 No special actions if energy rises.
 SCF Done:  E(RB3LYP) =  -338.221595569     A.U. after    1 cycles
            NFock=  1  Conv=0.20D+01     -V/T= 2.0072
 Calling FoFJK, ICntrl=      2127 FMM=F ISym2X=0 I1Cent= 0 IOpClX= 0 NMat=1 NMatS=1 NMatT=0.
 -------------------------------------------------------------------
 Center     Atomic                   Forces (Hartrees/Bohr)
 Number     Number              X              Y              Z
 -------------------------------------------------------------------
      1        6          -0.099479948   -0.115853208   -0.093851127
      2        9          -0.010794821    0.052774872    0.039048775
      3        9           0.038359668    0.000461522    0.036664656
      4        9           0.087534216    0.058533250    0.071412645
      5        1          -0.015619115    0.004083564   -0.053274948
 -------------------------------------------------------------------
 Cartesian Forces:  Max     0.115853208 RMS     0.062533060
 TRJ-TRJ-TRJ-TRJ-TRJ-TRJ-TRJ-TRJ-TRJ-TRJ-TRJ-TRJ-TRJ-TRJ-TRJ-TRJ-TRJ-TRJ

 ADMP step      3
 Frobenius norm of [F,P] =     9.592413D-02
 Current gradient on entry to l121
 I=    1 X=   9.947994834764D-02 Y=   1.158532075385D-01 Z=   9.385112745851D-02
 I=    2 X=   1.079482099625D-02 Y=  -5.277487185302D-02 Z=  -3.904877499669D-02
 I=    3 X=  -3.835966835086D-02 Y=  -4.615217040786D-04 Z=  -3.666465556524D-02
 I=    4 X=  -8.753421621856D-02 Y=  -5.853325027012D-02 Z=  -7.141264497159D-02
 I=    5 X=   1.561911522556D-02 Y=  -4.083563711363D-03 Z=   5.327494807502D-02

 Summary information for step      3
 Time (fs)     0.300000
 EKinC      =      0.0940074; EKinPA =      0.0011281; EKinPB =      0.0011281
 EKin       =      0.0962635; EPot   =   -338.2215956; ETot   =   -338.1253321
 ETot-EKinP =   -338.1275882
 Adiabaticity Index =    3.3740D-03
 Integrand for the Velocity-Velocity Auto-Correlation  Function =   1.817888837430D-01
 Angular momentum
   JX = -0.3001880178D-14  JY =  0.8259330975D-16  JZ =  0.5372395309D-14
 Jtot =  0.6154732944D-14 H-BAR;  J (Quantum Number) =  0.0000000000D+00
 Total energy  -3.381253321D+02  Delta-E   1.178771D-04 A.U.
 Total angular momentum   6.154733D-15  Delta-A  -2.708126D-15 h-bar
 Tr(PA)-NA = -3.553D-15
 Tr(PA**2-PA) =  3.014D-11
 Tr[(PA**2-PA)**2] =  2.802D-13
 Cartesian coordinates:
 I=    1 X=   4.798630310834D-02 Y=   6.456338501161D-03 Z=   7.238074533653D-01
 I=    2 X=   2.131334770194D+00 Y=  -1.049354396133D+00 Z=  -3.229897361692D-01
 I=    3 X=  -1.801320179527D-01 Y=   2.381159627866D+00 Z=  -1.816095503883D-01
 I=    4 X=  -1.992412824906D+00 Y=  -1.335088543203D+00 Z=  -1.037523049923D-01
 I=    5 X=   2.054820366138D-01 Y=  -1.498115857916D-02 Z=   2.849720247286D+00
 MW Cartesian velocity:
 I=    1 X=   9.753660349304D+13 Y=   1.079331423424D+14 Z=   1.133438636514D+14
 I=    2 X=   7.713248786439D+13 Y=  -8.206422726646D+13 Z=  -1.961774054631D+13
 I=    3 X=  -6.252176484489D+13 Y=   6.293408057684D+13 Z=  -2.938795098404D+13
 I=    4 X=  -1.326654822460D+14 Y=  -6.507209566075D+13 Z=  -9.666943549526D+13
 I=    5 X=   1.760031624746D+14 Y=  -6.850977933812D+12 Z=   2.413792532711D+14
 TRJ-TRJ-TRJ-TRJ-TRJ-TRJ-TRJ-TRJ-TRJ-TRJ-TRJ-TRJ-TRJ-TRJ-TRJ-TRJ-TRJ-TRJ
                          Input orientation:                          
 ---------------------------------------------------------------------
 Center     Atomic      Atomic             Coordinates (Angstroms)
 Number     Number       Type             X           Y           Z
 ---------------------------------------------------------------------
      1          6           0        0.026863    0.005041    0.384734
      2          9           0        1.128788   -0.556284   -0.171152
      3          9           0       -0.096076    1.260819   -0.096456
      4          9           0       -1.055939   -0.707281   -0.056066
      5          1           0        0.117992   -0.008262    1.520598
 ---------------------------------------------------------------------
                    Distance matrix (angstroms):
                    1          2          3          4          5
     1  C    0.000000
     2  F    1.355853   0.000000
     3  F    1.350421   2.192655   0.000000
     4  F    1.369003   2.192961   2.190065   0.000000
     5  H    1.139591   2.045497   2.066703   2.086292   0.000000
 Symmetry turned off by external request.
 Stoichiometry    CHF3
 Framework group  C1[X(CHF3)]
 Deg. of freedom     9
 Full point group                 C1      NOp   1
 Rotational constants (GHZ):          10.0360233          10.0056437           5.5366346
 Standard basis: 6-31G(d) (6D, 7F)
    62 basis functions,   116 primitive gaussians,    62 cartesian basis functions
    17 alpha electrons       17 beta electrons
       nuclear repulsion energy       131.4774095062 Hartrees.
 NAtoms=    5 NActive=    5 NUniq=    5 SFac= 1.00D+00 NAtFMM=   60 NAOKFM=F Big=F
 Integral buffers will be    131072 words long.
 Raffenetti 2 integral format.
 Two-electron integral symmetry is turned off.
 One-electron integrals computed using PRISM.
 NBasis=    62 RedAO= T EigKep=  2.81D-03  NBF=    62
 NBsUse=    62 1.00D-06 EigRej= -1.00D+00 NBFU=    62
 Keep R1 ints in memory in canonical form, NReq=8989199.
 Requested convergence on RMS density matrix=1.00D-08 within 128 cycles.
 Requested convergence on MAX density matrix=1.00D-06.
 Requested convergence on             energy=1.00D-06.
 No special actions if energy rises.
 SCF Done:  E(RB3LYP) =  -338.221013093     A.U. after    1 cycles
            NFock=  1  Conv=0.20D+01     -V/T= 2.0072
 Calling FoFJK, ICntrl=      2127 FMM=F ISym2X=0 I1Cent= 0 IOpClX= 0 NMat=1 NMatS=1 NMatT=0.
 -------------------------------------------------------------------
 Center     Atomic                   Forces (Hartrees/Bohr)
 Number     Number              X              Y              Z
 -------------------------------------------------------------------
      1        6          -0.080391703   -0.101079451   -0.066258260
      2        9          -0.011635486    0.044218559    0.032847891
      3        9           0.031116797    0.000412795    0.031161946
      4        9           0.078503751    0.052041921    0.059721545
      5        1          -0.017593359    0.004406175   -0.057473122
 -------------------------------------------------------------------
 Cartesian Forces:  Max     0.101079451 RMS     0.053071740
 TRJ-TRJ-TRJ-TRJ-TRJ-TRJ-TRJ-TRJ-TRJ-TRJ-TRJ-TRJ-TRJ-TRJ-TRJ-TRJ-TRJ-TRJ

 ADMP step      4
 Frobenius norm of [F,P] =     7.481066D-02
 Current gradient on entry to l121
 I=    1 X=   8.039170322341D-02 Y=   1.010794505795D-01 Z=   6.625825981055D-02
 I=    2 X=   1.163548627986D-02 Y=  -4.421855920990D-02 Z=  -3.284789122160D-02
 I=    3 X=  -3.111679743888D-02 Y=  -4.127954630526D-04 Z=  -3.116194581792D-02
 I=    4 X=  -7.850375059687D-02 Y=  -5.204192102387D-02 Z=  -5.972154461447D-02
 I=    5 X=   1.759335853247D-02 Y=  -4.406174882709D-03 Z=   5.747312184341D-02

 Summary information for step      4
 Time (fs)     0.400000
 EKinC      =      0.0909805; EKinPA =      0.0023785; EKinPB =      0.0023785
 EKin       =      0.0957374; EPot   =   -338.2210131; ETot   =   -338.1252756
 ETot-EKinP =   -338.1300326
 Adiabaticity Index =    6.2285D-03
 Integrand for the Velocity-Velocity Auto-Correlation  Function =   1.788114569994D-01
 Angular momentum
   JX =  0.8075105709D-15  JY = -0.6377632822D-14  JZ = -0.6248833336D-15
 Jtot =  0.6458850742D-14 H-BAR;  J (Quantum Number) =  0.0000000000D+00
 Total energy  -3.381252756D+02  Delta-E   5.644141D-05 A.U.
 Total angular momentum   6.458851D-15  Delta-A   3.041178D-16 h-bar
 Tr(PA)-NA =  1.066D-14
 Tr(PA**2-PA) =  2.811D-11
 Tr[(PA**2-PA)**2] =  2.664D-13
 Cartesian coordinates:
 I=    1 X=   5.076323767162D-02 Y=   9.526992899281D-03 Z=   7.270427280841D-01
 I=    2 X=   2.133100940200D+00 Y=  -1.051224984744D+00 Z=  -3.234309924347D-01
 I=    3 X=  -1.815573503642D-01 Y=   2.382603055806D+00 Z=  -1.822763283190D-01
 I=    4 X=  -1.995435547136D+00 Y=  -1.336567364716D+00 Z=  -1.059499990330D-01
 I=    5 X=   2.229734764697D-01 Y=  -1.561344557083D-02 Z=   2.873514319244D+00
 MW Cartesian velocity:
 I=    1 X=   9.511332198216D+13 Y=   1.050072322213D+14 Z=   1.111759267827D+14
 I=    2 X=   7.682319450216D+13 Y=  -8.109105210456D+13 Z=  -1.891926641045D+13
 I=    3 X=  -6.180903797565D+13 Y=   6.289828943260D+13 Z=  -2.878711225310D+13
 I=    4 X=  -1.309353449038D+14 Y=  -6.391059177281D+13 Z=  -9.504420389355D+13
 I=    5 X=   1.751015476533D+14 Y=  -5.867623686580D+12 Z=   2.361623203279D+14
 TRJ-TRJ-TRJ-TRJ-TRJ-TRJ-TRJ-TRJ-TRJ-TRJ-TRJ-TRJ-TRJ-TRJ-TRJ-TRJ-TRJ-TRJ
                          Input orientation:                          
 ---------------------------------------------------------------------
 Center     Atomic      Atomic             Coordinates (Angstroms)
 Number     Number       Type             X           Y           Z
 ---------------------------------------------------------------------
      1          6           0        0.028299    0.006625    0.386419
      2          9           0        1.129719   -0.557263   -0.171378
      3          9           0       -0.096823    1.261583   -0.096803
      4          9           0       -1.057519   -0.708050   -0.057211
      5          1           0        0.127196   -0.008546    1.532904
 ---------------------------------------------------------------------
                    Distance matrix (angstroms):
                    1          2          3          4          5
     1  C    0.000000
     2  F    1.357289   0.000000
     3  F    1.350584   2.195032   0.000000
     4  F    1.373524   2.195400   2.191793   0.000000
     5  H    1.150843   2.052004   2.078306   2.102694   0.000000
 Symmetry turned off by external request.
 Stoichiometry    CHF3
 Framework group  C1[X(CHF3)]
 Deg. of freedom     9
 Full point group                 C1      NOp   1
 Rotational constants (GHZ):          10.0091006           9.9713986           5.5255273
 Standard basis: 6-31G(d) (6D, 7F)
    62 basis functions,   116 primitive gaussians,    62 cartesian basis functions
    17 alpha electrons       17 beta electrons
       nuclear repulsion energy       131.2602259060 Hartrees.
 NAtoms=    5 NActive=    5 NUniq=    5 SFac= 1.00D+00 NAtFMM=   60 NAOKFM=F Big=F
 Integral buffers will be    131072 words long.
 Raffenetti 2 integral format.
 Two-electron integral symmetry is turned off.
 One-electron integrals computed using PRISM.
 NBasis=    62 RedAO= T EigKep=  2.81D-03  NBF=    62
 NBsUse=    62 1.00D-06 EigRej= -1.00D+00 NBFU=    62
 Keep R1 ints in memory in canonical form, NReq=8989199.
 Requested convergence on RMS density matrix=1.00D-08 within 128 cycles.
 Requested convergence on MAX density matrix=1.00D-06.
 Requested convergence on             energy=1.00D-06.
 No special actions if energy rises.
 SCF Done:  E(RB3LYP) =  -338.220587586     A.U. after    1 cycles
            NFock=  1  Conv=0.20D+01     -V/T= 2.0072
 Calling FoFJK, ICntrl=      2127 FMM=F ISym2X=0 I1Cent= 0 IOpClX= 0 NMat=1 NMatS=1 NMatT=0.
 -------------------------------------------------------------------
 Center     Atomic                   Forces (Hartrees/Bohr)
 Number     Number              X              Y              Z
 -------------------------------------------------------------------
      1        6          -0.042528361   -0.065531293   -0.019463095
      2        9          -0.011183272    0.025807443    0.019854737
      3        9           0.016652196    0.000022569    0.019214302
      4        9           0.054898643    0.035536751    0.036169533
      5        1          -0.017839206    0.004164531   -0.055775476
 -------------------------------------------------------------------
 Cartesian Forces:  Max     0.065531293 RMS     0.034004951
 TRJ-TRJ-TRJ-TRJ-TRJ-TRJ-TRJ-TRJ-TRJ-TRJ-TRJ-TRJ-TRJ-TRJ-TRJ-TRJ-TRJ-TRJ

 ADMP step      5
 Frobenius norm of [F,P] =     5.078780D-02
 Current gradient on entry to l121
 I=    1 X=   4.252836080199D-02 Y=   6.553129288788D-02 Z=   1.946309494126D-02
 I=    2 X=   1.118327192675D-02 Y=  -2.580744256643D-02 Z=  -1.985473670825D-02
 I=    3 X=  -1.665219606461D-02 Y=  -2.256920299359D-05 Z=  -1.921430194795D-02
 I=    4 X=  -5.489864257166D-02 Y=  -3.553675060488D-02 Z=  -3.616953260367D-02
 I=    5 X=   1.783920590757D-02 Y=  -4.164530513577D-03 Z=   5.577547631861D-02

 Summary information for step      5
 Time (fs)     0.500000
 EKinC      =      0.0883788; EKinPA =      0.0034890; EKinPB =      0.0034890
 EKin       =      0.0953568; EPot   =   -338.2205876; ETot   =   -338.1252307
 ETot-EKinP =   -338.1322088
 Adiabaticity Index =    6.7366D-03
 Integrand for the Velocity-Velocity Auto-Correlation  Function =   1.762065944528D-01
 Angular momentum
   JX =  0.9488582026D-14  JY =  0.5683601396D-14  JZ = -0.2369110160D-13
 Jtot =  0.2614583731D-13 H-BAR;  J (Quantum Number) =  0.0000000000D+00
 Total energy  -3.381252307D+02  Delta-E   4.490234D-05 A.U.
 Total angular momentum   2.614584D-14  Delta-A   1.968699D-14 h-bar
 Tr(PA)-NA =  0.000D+00
 Tr(PA**2-PA) = -5.665D-11
 Tr[(PA**2-PA)**2] =  6.548D-13
 Cartesian coordinates:
 I=    1 X=   5.347767331333D-02 Y=   1.251893388015D-02 Z=   7.302261984908D-01
 I=    2 X=   2.134859808227D+00 Y=  -1.053075265132D+00 Z=  -3.238578481254D-01
 I=    3 X=  -1.829681302893D-01 Y=   2.384045720587D+00 Z=  -1.829304491900D-01
 I=    4 X=  -1.998420803013D+00 Y=  -1.338021085493D+00 Z=  -1.081134154062D-01
 I=    5 X=   2.403661274535D-01 Y=  -1.615011865084D-02 Z=   2.896768990976D+00
 MW Cartesian velocity:
 I=    1 X=   9.345970529511D+13 Y=   1.027597918094D+14 Z=   1.100148054404D+14
 I=    2 X=   7.651593819359D+13 Y=  -8.039193737799D+13 Z=  -1.843069227792D+13
 I=    3 X=  -6.132825110201D+13 Y=   6.286903180218D+13 Z=  -2.833913741119D+13
 I=    4 X=  -1.295510420324D+14 Y=  -6.298842656854D+13 Z=  -9.382950613717D+13
 I=    5 X=   1.740438210185D+14 Y=  -5.024725875446D+12 Z=   2.308287167318D+14
 TRJ-TRJ-TRJ-TRJ-TRJ-TRJ-TRJ-TRJ-TRJ-TRJ-TRJ-TRJ-TRJ-TRJ-TRJ-TRJ-TRJ-TRJ
                          Input orientation:                          
 ---------------------------------------------------------------------
 Center     Atomic      Atomic             Coordinates (Angstroms)
 Number     Number       Type             X           Y           Z
 ---------------------------------------------------------------------
      1          6           0        0.029718    0.008181    0.388096
      2          9           0        1.130646   -0.558236   -0.171600
      3          9           0       -0.097565    1.262346   -0.097145
      4          9           0       -1.059085   -0.708810   -0.058345
      5          1           0        0.136341   -0.008792    1.544933
 ---------------------------------------------------------------------
                    Distance matrix (angstroms):
                    1          2          3          4          5
     1  C    0.000000
     2  F    1.358724   0.000000
     3  F    1.350773   2.197400   0.000000
     4  F    1.377998   2.197822   2.193509   0.000000
     5  H    1.161865   2.058402   2.089718   2.118860   0.000000
 Symmetry turned off by external request.
 Stoichiometry    CHF3
 Framework group  C1[X(CHF3)]
 Deg. of freedom     9
 Full point group                 C1      NOp   1
 Rotational constants (GHZ):           9.9825096           9.9375730           5.5144964
 Standard basis: 6-31G(d) (6D, 7F)
    62 basis functions,   116 primitive gaussians,    62 cartesian basis functions
    17 alpha electrons       17 beta electrons
       nuclear repulsion energy       131.0464655153 Hartrees.
 NAtoms=    5 NActive=    5 NUniq=    5 SFac= 1.00D+00 NAtFMM=   60 NAOKFM=F Big=F
 Integral buffers will be    131072 words long.
 Raffenetti 2 integral format.
 Two-electron integral symmetry is turned off.
 One-electron integrals computed using PRISM.
 NBasis=    62 RedAO= T EigKep=  2.82D-03  NBF=    62
 NBsUse=    62 1.00D-06 EigRej= -1.00D+00 NBFU=    62
 Keep R1 ints in memory in canonical form, NReq=8989199.
 Requested convergence on RMS density matrix=1.00D-08 within 128 cycles.
 Requested convergence on MAX density matrix=1.00D-06.
 Requested convergence on             energy=1.00D-06.
 No special actions if energy rises.
 SCF Done:  E(RB3LYP) =  -338.219607479     A.U. after    1 cycles
            NFock=  1  Conv=0.20D+01     -V/T= 2.0072
 Calling FoFJK, ICntrl=      2127 FMM=F ISym2X=0 I1Cent= 0 IOpClX= 0 NMat=1 NMatS=1 NMatT=0.
 -------------------------------------------------------------------
 Center     Atomic                   Forces (Hartrees/Bohr)
 Number     Number              X              Y              Z
 -------------------------------------------------------------------
      1        6          -0.000295481   -0.022996058    0.030409244
      2        9          -0.009254386    0.004291942    0.004715352
      3        9           0.000566393   -0.000001463    0.005111162
      4        9           0.025803391    0.015192273    0.010437141
      5        1          -0.016819917    0.003513306   -0.050672900
 -------------------------------------------------------------------
 Cartesian Forces:  Max     0.050672900 RMS     0.019104837
 TRJ-TRJ-TRJ-TRJ-TRJ-TRJ-TRJ-TRJ-TRJ-TRJ-TRJ-TRJ-TRJ-TRJ-TRJ-TRJ-TRJ-TRJ

 ADMP step      6
 Frobenius norm of [F,P] =     6.124691D-02
 Current gradient on entry to l121
 I=    1 X=   2.954805817721D-04 Y=   2.299605837093D-02 Z=  -3.040924419536D-02
 I=    2 X=   9.254386326202D-03 Y=  -4.291941977927D-03 Z=  -4.715352242240D-03
 I=    3 X=  -5.663930964517D-04 Y=   1.462627018611D-06 Z=  -5.111162276592D-03
 I=    4 X=  -2.580339108597D-02 Y=  -1.519227278742D-02 Z=  -1.043714145666D-02
 I=    5 X=   1.681991727441D-02 Y=  -3.513306232587D-03 Z=   5.067290017081D-02

 Summary information for step      6
 Time (fs)     0.600000
 EKinC      =      0.0864888; EKinPA =      0.0039789; EKinPB =      0.0039789
 EKin       =      0.0944466; EPot   =   -338.2196075; ETot   =   -338.1251609
 ETot-EKinP =   -338.1331187
 Adiabaticity Index =    4.4360D-03
 Integrand for the Velocity-Velocity Auto-Correlation  Function =   1.742849535448D-01
 Angular momentum
   JX =  0.6061371715D-15  JY =  0.8504935583D-14  JZ = -0.9393175313D-14
 Jtot =  0.1268594001D-13 H-BAR;  J (Quantum Number) =  0.0000000000D+00
 Total energy  -3.381251609D+02  Delta-E   6.986832D-05 A.U.
 Total angular momentum   1.268594D-14  Delta-A  -1.345990D-14 h-bar
 Tr(PA)-NA =  7.105D-15
 Tr(PA**2-PA) =  8.397D-11
 Tr[(PA**2-PA)**2] =  6.352D-13
 Cartesian coordinates:
 I=    1 X=   5.615913627267D-02 Y=   1.545983224558D-02 Z=   7.333944358377D-01
 I=    2 X=   2.136611879754D+00 Y=  -1.054913774811D+00 Z=  -3.242766861302D-01
 I=    3 X=  -1.843714017591D-01 Y=   2.385487806038D+00 Z=  -1.835766717615D-01
 I=    4 X=  -2.001380006402D+00 Y=  -1.339457593387D+00 Z=  -1.102553729493D-01
 I=    5 X=   2.576468448315D-01 Y=  -1.661448180514D-02 Z=   2.919500491444D+00
 MW Cartesian velocity:
 I=    1 X=   9.288741767656D+13 Y=   1.015649591079D+14 Z=   1.101623502158D+14
 I=    2 X=   7.625090422343D+13 Y=  -8.009396745317D+13 Z=  -1.823879979739D+13
 I=    3 X=  -6.117006574665D+13 Y=   6.285434993176D+13 Z=  -2.811473083710D+13
 I=    4 X=  -1.287196441788D+14 Y=  -6.244995032887D+13 Z=  -9.320967414246D+13
 I=    5 X=   1.728727521818D+14 Y=  -4.469708265374D+12 Z=   2.258209606409D+14
 TRJ-TRJ-TRJ-TRJ-TRJ-TRJ-TRJ-TRJ-TRJ-TRJ-TRJ-TRJ-TRJ-TRJ-TRJ-TRJ-TRJ-TRJ
                          Input orientation:                          
 ---------------------------------------------------------------------
 Center     Atomic      Atomic             Coordinates (Angstroms)
 Number     Number       Type             X           Y           Z
 ---------------------------------------------------------------------
      1          6           0        0.031137    0.009728    0.389785
      2          9           0        1.131571   -0.559208   -0.171821
      3          9           0       -0.098308    1.263109   -0.097485
      4          9           0       -1.060644   -0.709567   -0.059474
      5          1           0        0.145421   -0.009017    1.556711
 ---------------------------------------------------------------------
                    Distance matrix (angstroms):
                    1          2          3          4          5
     1  C    0.000000
     2  F    1.360163   0.000000
     3  F    1.350982   2.199765   0.000000
     4  F    1.382463   2.200235   2.195219   0.000000
     5  H    1.172659   2.064709   2.100970   2.134811   0.000000
 Symmetry turned off by external request.
 Stoichiometry    CHF3
 Framework group  C1[X(CHF3)]
 Deg. of freedom     9
 Full point group                 C1      NOp   1
 Rotational constants (GHZ):           9.9561328           9.9040338           5.5035054
 Standard basis: 6-31G(d) (6D, 7F)
    62 basis functions,   116 primitive gaussians,    62 cartesian basis functions
    17 alpha electrons       17 beta electrons
       nuclear repulsion energy       130.8351535127 Hartrees.
 NAtoms=    5 NActive=    5 NUniq=    5 SFac= 1.00D+00 NAtFMM=   60 NAOKFM=F Big=F
 Integral buffers will be    131072 words long.
 Raffenetti 2 integral format.
 Two-electron integral symmetry is turned off.
 One-electron integrals computed using PRISM.
 NBasis=    62 RedAO= T EigKep=  2.83D-03  NBF=    62
 NBsUse=    62 1.00D-06 EigRej= -1.00D+00 NBFU=    62
 Keep R1 ints in memory in canonical form, NReq=8989199.
 Requested convergence on RMS density matrix=1.00D-08 within 128 cycles.
 Requested convergence on MAX density matrix=1.00D-06.
 Requested convergence on             energy=1.00D-06.
 No special actions if energy rises.
 SCF Done:  E(RB3LYP) =  -338.218059949     A.U. after    1 cycles
            NFock=  1  Conv=0.20D+01     -V/T= 2.0073
 Calling FoFJK, ICntrl=      2127 FMM=F ISym2X=0 I1Cent= 0 IOpClX= 0 NMat=1 NMatS=1 NMatT=0.
 -------------------------------------------------------------------
 Center     Atomic                   Forces (Hartrees/Bohr)
 Number     Number              X              Y              Z
 -------------------------------------------------------------------
      1        6           0.032261072    0.012500721    0.067518358
      2        9          -0.006282804   -0.013319805   -0.007708331
      3        9          -0.011660164    0.000516879   -0.006515364
      4        9           0.000877850   -0.002373893   -0.008227178
      5        1          -0.015195953    0.002676098   -0.045067485
 -------------------------------------------------------------------
 Cartesian Forces:  Max     0.067518358 RMS     0.023880268
 TRJ-TRJ-TRJ-TRJ-TRJ-TRJ-TRJ-TRJ-TRJ-TRJ-TRJ-TRJ-TRJ-TRJ-TRJ-TRJ-TRJ-TRJ

 ADMP step      7
 Frobenius norm of [F,P] =     8.400289D-02
 Current gradient on entry to l121
 I=    1 X=  -3.226107154852D-02 Y=  -1.250072061241D-02 Z=  -6.751835791974D-02
 I=    2 X=   6.282803982103D-03 Y=   1.331980460397D-02 Z=   7.708330799291D-03
 I=    3 X=   1.166016383835D-02 Y=  -5.168790687620D-04 Z=   6.515363743628D-03
 I=    4 X=  -8.778496308182D-04 Y=   2.373892696458D-03 Z=   8.227178156960D-03
 I=    5 X=   1.519595335888D-02 Y=  -2.676097619307D-03 Z=   4.506748521978D-02

 Summary information for step      7
 Time (fs)     0.700000
 EKinC      =      0.0853214; EKinPA =      0.0038233; EKinPB =      0.0038233
 EKin       =      0.0929681; EPot   =   -338.2180599; ETot   =   -338.1250919
 ETot-EKinP =   -338.1327385
 Adiabaticity Index =    1.2111D-03
 Integrand for the Velocity-Velocity Auto-Correlation  Function =   1.730746990475D-01
 Angular momentum
   JX =  0.1236577278D-13  JY =  0.4596630586D-14  JZ = -0.2843975376D-14
 Jtot =  0.1349553797D-13 H-BAR;  J (Quantum Number) =  0.0000000000D+00
 Total energy  -3.381250919D+02  Delta-E   6.901493D-05 A.U.
 Total angular momentum   1.349554D-14  Delta-A   8.095980D-16 h-bar
 Tr(PA)-NA = -7.105D-15
 Tr(PA**2-PA) = -4.754D-11
 Tr[(PA**2-PA)**2] =  3.978D-13
 Cartesian coordinates:
 I=    1 X=   5.884053087332D-02 Y=   1.838278952826D-02 Z=   7.365864247460D-01
 I=    2 X=   2.138358586678D+00 Y=  -1.056750382827D+00 Z=  -3.246947368200D-01
 I=    3 X=  -1.857749233373D-01 Y=   2.386929797141D+00 Z=  -1.842204957201D-01
 I=    4 X=  -2.004327113527D+00 Y=  -1.340886606141D+00 Z=  -1.123903482850D-01
 I=    5 X=   2.748061930705D-01 Y=  -1.704058313414D-02 Z=   2.941757507697D+00
 MW Cartesian velocity:
 I=    1 X=   9.332381043997D+13 Y=   1.014217041865D+14 Z=   1.114877065209D+14
 I=    2 X=   7.606112816096D+13 Y=  -8.018439657403D+13 Z=  -1.832913903694D+13
 I=    3 X=  -6.130764212981D+13 Y=   6.286616864737D+13 Z=  -2.810551918515D+13
 I=    4 X=  -1.284503171973D+14 Y=  -6.230581612406D+13 Z=  -9.314704947275D+13
 I=    5 X=   1.716188561431D+14 Y=  -4.259877646363D+12 Z=   2.213279852785D+14
 TRJ-TRJ-TRJ-TRJ-TRJ-TRJ-TRJ-TRJ-TRJ-TRJ-TRJ-TRJ-TRJ-TRJ-TRJ-TRJ-TRJ-TRJ
                          Input orientation:                          
 ---------------------------------------------------------------------
 Center     Atomic      Atomic             Coordinates (Angstroms)
 Number     Number       Type             X           Y           Z
 ---------------------------------------------------------------------
      1          6           0        0.032569    0.011280    0.391502
      2          9           0        1.132493   -0.560183   -0.172045
      3          9           0       -0.099054    1.263872   -0.097827
      4          9           0       -1.062204   -0.710323   -0.060606
      5          1           0        0.154434   -0.009241    1.568266
 ---------------------------------------------------------------------
                    Distance matrix (angstroms):
                    1          2          3          4          5
     1  C    0.000000
     2  F    1.361612   0.000000
     3  F    1.351205   2.202134   0.000000
     4  F    1.386954   2.202647   2.196928   0.000000
     5  H    1.183236   2.070947   2.112094   2.150569   0.000000
 Symmetry turned off by external request.
 Stoichiometry    CHF3
 Framework group  C1[X(CHF3)]
 Deg. of freedom     9
 Full point group                 C1      NOp   1
 Rotational constants (GHZ):           9.9298682           9.8706690           5.4925220
 Standard basis: 6-31G(d) (6D, 7F)
    62 basis functions,   116 primitive gaussians,    62 cartesian basis functions
    17 alpha electrons       17 beta electrons
       nuclear repulsion energy       130.6254578064 Hartrees.
 NAtoms=    5 NActive=    5 NUniq=    5 SFac= 1.00D+00 NAtFMM=   60 NAOKFM=F Big=F
 Integral buffers will be    131072 words long.
 Raffenetti 2 integral format.
 Two-electron integral symmetry is turned off.
 One-electron integrals computed using PRISM.
 NBasis=    62 RedAO= T EigKep=  2.83D-03  NBF=    62
 NBsUse=    62 1.00D-06 EigRej= -1.00D+00 NBFU=    62
 Keep R1 ints in memory in canonical form, NReq=8989199.
 Requested convergence on RMS density matrix=1.00D-08 within 128 cycles.
 Requested convergence on MAX density matrix=1.00D-06.
 Requested convergence on             energy=1.00D-06.
 No special actions if energy rises.
 SCF Done:  E(RB3LYP) =  -338.216404256     A.U. after    1 cycles
            NFock=  1  Conv=0.20D+01     -V/T= 2.0075
 Calling FoFJK, ICntrl=      2127 FMM=F ISym2X=0 I1Cent= 0 IOpClX= 0 NMat=1 NMatS=1 NMatT=0.
 -------------------------------------------------------------------
 Center     Atomic                   Forces (Hartrees/Bohr)
 Number     Number              X              Y              Z
 -------------------------------------------------------------------
      1        6           0.046465972    0.031553442    0.081972278
      2        9          -0.003368485   -0.022122196   -0.013960123
      3        9          -0.016624942    0.000944456   -0.012225844
      4        9          -0.012839507   -0.012259790   -0.014370335
      5        1          -0.013633039    0.001884087   -0.041415975
 -------------------------------------------------------------------
 Cartesian Forces:  Max     0.081972278 RMS     0.029914200
 TRJ-TRJ-TRJ-TRJ-TRJ-TRJ-TRJ-TRJ-TRJ-TRJ-TRJ-TRJ-TRJ-TRJ-TRJ-TRJ-TRJ-TRJ

 ADMP step      8
 Frobenius norm of [F,P] =     9.155141D-02
 Current gradient on entry to l121
 I=    1 X=  -4.646597156585D-02 Y=  -3.155344210003D-02 Z=  -8.197227770538D-02
 I=    2 X=   3.368484691226D-03 Y=   2.212219564807D-02 Z=   1.396012339329D-02
 I=    3 X=   1.662494166667D-02 Y=  -9.444564606795D-04 Z=   1.222584424351D-02
 I=    4 X=   1.283950669274D-02 Y=   1.225979015539D-02 Z=   1.437033534248D-02
 I=    5 X=   1.363303851521D-02 Y=  -1.884087242821D-03 Z=   4.141597472608D-02

 Summary information for step      8
 Time (fs)     0.800000
 EKinC      =      0.0846577; EKinPA =      0.0033400; EKinPB =      0.0033400
 EKin       =      0.0913377; EPot   =   -338.2164043; ETot   =   -338.1250666
 ETot-EKinP =   -338.1317465
 Adiabaticity Index =   -9.6207D-04
 Integrand for the Velocity-Velocity Auto-Correlation  Function =   1.723564474088D-01
 Angular momentum
   JX =  0.8327977757D-14  JY =  0.1183020294D-13  JZ = -0.1839581108D-13
 Jtot =  0.2340330704D-13 H-BAR;  J (Quantum Number) =  0.0000000000D+00
 Total energy  -3.381250666D+02  Delta-E   2.527497D-05 A.U.
 Total angular momentum   2.340331D-14  Delta-A   9.907769D-15 h-bar
 Tr(PA)-NA = -1.066D-14
 Tr(PA**2-PA) = -7.078D-11
 Tr[(PA**2-PA)**2] =  6.015D-13
 Cartesian coordinates:
 I=    1 X=   6.154718898061D-02 Y=   2.131541706696D-02 Z=   7.398311815748D-01
 I=    2 X=   2.140101950316D+00 Y=  -1.058593041853D+00 Z=  -3.251177200477D-01
 I=    3 X=  -1.871845075098D-01 Y=   2.388372424895D+00 Z=  -1.848662956142D-01
 I=    4 X=  -2.007273958827D+00 Y=  -1.342316500426D+00 Z=  -1.145294322905D-01
 I=    5 X=   2.918371066981D-01 Y=  -1.746314340050D-02 Z=   2.963593908363D+00
 MW Cartesian velocity:
 I=    1 X=   9.438958558246D+13 Y=   1.020130965748D+14 Z=   1.135115782391D+14
 I=    2 X=   7.595755934657D+13 Y=  -8.053119761969D+13 Z=  -1.860040891333D+13
 I=    3 X=  -6.162056736916D+13 Y=   6.290567047450D+13 Z=  -2.823328055439D+13
 I=    4 X=  -1.285773585019D+14 Y=  -6.244652257438D+13 Z=  -9.342529894187D+13
 I=    5 X=   1.703011643414D+14 Y=  -4.355418518355D+12 Z=   2.172849497561D+14
 TRJ-TRJ-TRJ-TRJ-TRJ-TRJ-TRJ-TRJ-TRJ-TRJ-TRJ-TRJ-TRJ-TRJ-TRJ-TRJ-TRJ-TRJ
                          Input orientation:                          
 ---------------------------------------------------------------------
 Center     Atomic      Atomic             Coordinates (Angstroms)
 Number     Number       Type             X           Y           Z
 ---------------------------------------------------------------------
      1          6           0        0.034021    0.012844    0.393253
      2          9           0        1.133415   -0.561164   -0.172273
      3          9           0       -0.099804    1.264636   -0.098171
      4          9           0       -1.063766   -0.711083   -0.061743
      5          1           0        0.163375   -0.009477    1.579618
 ---------------------------------------------------------------------
                    Distance matrix (angstroms):
                    1          2          3          4          5
     1  C    0.000000
     2  F    1.363074   0.000000
     3  F    1.351440   2.204510   0.000000
     4  F    1.391484   2.205062   2.198640   0.000000
     5  H    1.193605   2.077127   2.123112   2.166147   0.000000
 Symmetry turned off by external request.
 Stoichiometry    CHF3
 Framework group  C1[X(CHF3)]
 Deg. of freedom     9
 Full point group                 C1      NOp   1
 Rotational constants (GHZ):           9.9036625           9.8374219           5.4815280
 Standard basis: 6-31G(d) (6D, 7F)
    62 basis functions,   116 primitive gaussians,    62 cartesian basis functions
    17 alpha electrons       17 beta electrons
       nuclear repulsion energy       130.4169279129 Hartrees.
 NAtoms=    5 NActive=    5 NUniq=    5 SFac= 1.00D+00 NAtFMM=   60 NAOKFM=F Big=F
 Integral buffers will be    131072 words long.
 Raffenetti 2 integral format.
 Two-electron integral symmetry is turned off.
 One-electron integrals computed using PRISM.
 NBasis=    62 RedAO= T EigKep=  2.84D-03  NBF=    62
 NBsUse=    62 1.00D-06 EigRej= -1.00D+00 NBFU=    62
 Keep R1 ints in memory in canonical form, NReq=8989199.
 Requested convergence on RMS density matrix=1.00D-08 within 128 cycles.
 Requested convergence on MAX density matrix=1.00D-06.
 Requested convergence on             energy=1.00D-06.
 No special actions if energy rises.
 SCF Done:  E(RB3LYP) =  -338.214951198     A.U. after    1 cycles
            NFock=  1  Conv=0.20D+01     -V/T= 2.0078
 Calling FoFJK, ICntrl=      2127 FMM=F ISym2X=0 I1Cent= 0 IOpClX= 0 NMat=1 NMatS=1 NMatT=0.
 -------------------------------------------------------------------
 Center     Atomic                   Forces (Hartrees/Bohr)
 Number     Number              X              Y              Z
 -------------------------------------------------------------------
      1        6           0.041412491    0.031922189    0.072575240
      2        9          -0.001965302   -0.020631836   -0.012911747
      3        9          -0.013928188    0.000011212   -0.010726932
      4        9          -0.012894007   -0.012619995   -0.007838601
      5        1          -0.012624994    0.001318429   -0.041097960
 -------------------------------------------------------------------
 Cartesian Forces:  Max     0.072575240 RMS     0.027256351
 TRJ-TRJ-TRJ-TRJ-TRJ-TRJ-TRJ-TRJ-TRJ-TRJ-TRJ-TRJ-TRJ-TRJ-TRJ-TRJ-TRJ-TRJ

 ADMP step      9
 Frobenius norm of [F,P] =     8.217768D-02
 Current gradient on entry to l121
 I=    1 X=  -4.141249106314D-02 Y=  -3.192218933557D-02 Z=  -7.257523950769D-02
 I=    2 X=   1.965301937233D-03 Y=   2.063183593431D-02 Z=   1.291174711226D-02
 I=    3 X=   1.392818811566D-02 Y=  -1.121231621326D-05 Z=   1.072693165000D-02
 I=    4 X=   1.289400678949D-02 Y=   1.261999505841D-02 Z=   7.838600836116D-03
 I=    5 X=   1.262499422071D-02 Y=  -1.318429340960D-03 Z=   4.109795990933D-02

 Summary information for step      9
 Time (fs)     0.900000
 EKinC      =      0.0841501; EKinPA =      0.0028552; EKinPB =      0.0028552
 EKin       =      0.0898604; EPot   =   -338.2149512; ETot   =   -338.1250908
 ETot-EKinP =   -338.1308011
 Adiabaticity Index =   -1.5762D-03
 Integrand for the Velocity-Velocity Auto-Correlation  Function =   1.717744748046D-01
 Angular momentum
   JX =  0.2269805388D-13  JY =  0.9885110281D-15  JZ = -0.3220449714D-13
 Jtot =  0.3941203420D-13 H-BAR;  J (Quantum Number) =  0.0000000000D+00
 Total energy  -3.381250908D+02  Delta-E  -2.419999D-05 A.U.
 Total angular momentum   3.941203D-14  Delta-A   1.600873D-14 h-bar
 Tr(PA)-NA = -7.105D-15
 Tr(PA**2-PA) = -7.568D-11
 Tr[(PA**2-PA)**2] =  6.490D-13
 Cartesian coordinates:
 I=    1 X=   6.429011613779D-02 Y=   2.427251840509D-02 Z=   7.431400187712D-01
 I=    2 X=   2.141843904978D+00 Y=  -1.060445562861D+00 Z=  -3.255482179761D-01
 I=    3 X=  -1.886023876861D-01 Y=   2.389816228542D+00 Z=  -1.855159819128D-01
 I=    4 X=  -2.010226895251D+00 Y=  -1.343751969506D+00 Z=  -1.166771751239D-01
 I=    5 X=   3.087339416633D-01 Y=  -1.790827857873D-02 Z=   2.985045462755D+00
 MW Cartesian velocity:
 I=    1 X=   9.557652706006D+13 Y=   1.028654426509D+14 Z=   1.156043936272D+14
 I=    2 X=   7.591836788253D+13 Y=  -8.094062091304D+13 Z=  -1.890592472953D+13
 I=    3 X=  -6.194941623771D+13 Y=   6.294922150490D+13 Z=  -2.838104854248D+13
 I=    4 X=  -1.288375090047D+14 Y=  -6.269251823513D+13 Z=  -9.375050187375D+13
 I=    5 X=   1.689329265824D+14 Y=  -4.639962449221D+12 Z=   2.134434277492D+14
 TRJ-TRJ-TRJ-TRJ-TRJ-TRJ-TRJ-TRJ-TRJ-TRJ-TRJ-TRJ-TRJ-TRJ-TRJ-TRJ-TRJ-TRJ
                          Input orientation:                          
 ---------------------------------------------------------------------
 Center     Atomic      Atomic             Coordinates (Angstroms)
 Number     Number       Type             X           Y           Z
 ---------------------------------------------------------------------
      1          6           0        0.035489    0.014422    0.395034
      2          9           0        1.134337   -0.562149   -0.172504
      3          9           0       -0.100558    1.265401   -0.098516
      4          9           0       -1.065332   -0.711846   -0.062883
      5          1           0        0.172243   -0.009730    1.590768
 ---------------------------------------------------------------------
                    Distance matrix (angstroms):
                    1          2          3          4          5
     1  C    0.000000
     2  F    1.364551   0.000000
     3  F    1.351683   2.206893   0.000000
     4  F    1.396052   2.207480   2.200355   0.000000
     5  H    1.203772   2.083247   2.134025   2.181541   0.000000
 Symmetry turned off by external request.
 Stoichiometry    CHF3
 Framework group  C1[X(CHF3)]
 Deg. of freedom     9
 Full point group                 C1      NOp   1
 Rotational constants (GHZ):           9.8775242           9.8043037           5.4705236
 Standard basis: 6-31G(d) (6D, 7F)
    62 basis functions,   116 primitive gaussians,    62 cartesian basis functions
    17 alpha electrons       17 beta electrons
       nuclear repulsion energy       130.2095840565 Hartrees.
 NAtoms=    5 NActive=    5 NUniq=    5 SFac= 1.00D+00 NAtFMM=   60 NAOKFM=F Big=F
 Integral buffers will be    131072 words long.
 Raffenetti 2 integral format.
 Two-electron integral symmetry is turned off.
 One-electron integrals computed using PRISM.
 NBasis=    62 RedAO= T EigKep=  2.84D-03  NBF=    62
 NBsUse=    62 1.00D-06 EigRej= -1.00D+00 NBFU=    62
 Keep R1 ints in memory in canonical form, NReq=8989199.
 Requested convergence on RMS density matrix=1.00D-08 within 128 cycles.
 Requested convergence on MAX density matrix=1.00D-06.
 Requested convergence on             energy=1.00D-06.
 No special actions if energy rises.
 SCF Done:  E(RB3LYP) =  -338.213652851     A.U. after    1 cycles
            NFock=  1  Conv=0.20D+01     -V/T= 2.0080
 Calling FoFJK, ICntrl=      2127 FMM=F ISym2X=0 I1Cent= 0 IOpClX= 0 NMat=1 NMatS=1 NMatT=0.
 -------------------------------------------------------------------
 Center     Atomic                   Forces (Hartrees/Bohr)
 Number     Number              X              Y              Z
 -------------------------------------------------------------------
      1        6           0.023125070    0.018102539    0.046011038
      2        9          -0.003317097   -0.010748068   -0.005769015
      3        9          -0.005846927   -0.003612308   -0.002996681
      4        9          -0.001568600   -0.004815279    0.006965567
      5        1          -0.012392447    0.001073116   -0.044210909
 -------------------------------------------------------------------
 Cartesian Forces:  Max     0.046011038 RMS     0.018936742
 TRJ-TRJ-TRJ-TRJ-TRJ-TRJ-TRJ-TRJ-TRJ-TRJ-TRJ-TRJ-TRJ-TRJ-TRJ-TRJ-TRJ-TRJ

 ADMP step     10
 Frobenius norm of [F,P] =     6.799833D-02
 Current gradient on entry to l121
 I=    1 X=  -2.312507047643D-02 Y=  -1.810253888839D-02 Z=  -4.601103806317D-02
 I=    2 X=   3.317096700105D-03 Y=   1.074806773868D-02 Z=   5.769015425312D-03
 I=    3 X=   5.846926725333D-03 Y=   3.612308493121D-03 Z=   2.996680826577D-03
 I=    4 X=   1.568600226420D-03 Y=   4.815278784603D-03 Z=  -6.965567252553D-03
 I=    5 X=   1.239244682455D-02 Y=  -1.073116128018D-03 Z=   4.421090906386D-02

 Summary information for step     10
 Time (fs)     1.000000
 EKinC      =      0.0834504; EKinPA =      0.0025323; EKinPB =      0.0025323
 EKin       =      0.0885150; EPot   =   -338.2136529; ETot   =   -338.1251378
 ETot-EKinP =   -338.1302024
 Adiabaticity Index =   -1.1626D-03
 Integrand for the Velocity-Velocity Auto-Correlation  Function =   1.709753351647D-01
 Angular momentum
   JX =  0.5544495596D-14  JY =  0.4979292481D-14  JZ = -0.3025718814D-13
 Jtot =  0.3116138988D-13 H-BAR;  J (Quantum Number) =  0.0000000000D+00
 Total energy  -3.381251378D+02  Delta-E  -4.705186D-05 A.U.
 Total angular momentum   3.116139D-14  Delta-A  -8.250644D-15 h-bar
 Tr(PA)-NA = -3.553D-15
 Tr(PA**2-PA) = -6.154D-11
 Tr[(PA**2-PA)**2] =  5.337D-13
 Cartesian coordinates:
 I=    1 X=   6.706530234324D-02 Y=   2.725435616744D-02 Z=   7.465056043529D-01
 I=    2 X=   2.143585470312D+00 Y=  -1.062307008306D+00 Z=  -3.259852198198D-01
 I=    3 X=  -1.900270611135D-01 Y=   2.391260854638D+00 Z=  -1.861685621522D-01
 I=    4 X=  -2.013185677577D+00 Y=  -1.345193151321D+00 Z=  -1.188311810902D-01
 I=    5 X=   3.254922721474D-01 Y=  -1.838752627284D-02 Z=   3.006116547498D+00
 MW Cartesian velocity:
 I=    1 X=   9.644617367881D+13 Y=   1.035358607354D+14 Z=   1.172106800583D+14
 I=    2 X=   7.588906256998D+13 Y=  -8.122660872876D+13 Z=  -1.910415632994D+13
 I=    3 X=  -6.215641332404D+13 Y=   6.294348278615D+13 Z=  -2.843275528697D+13
 I=    4 X=  -1.289688038427D+14 Y=  -6.285976681215D+13 Z=  -9.386475275869D+13
 I=    5 X=   1.675281198249D+14 Y=  -4.960564838857D+12 Z=   2.094819548054D+14
 TRJ-TRJ-TRJ-TRJ-TRJ-TRJ-TRJ-TRJ-TRJ-TRJ-TRJ-TRJ-TRJ-TRJ-TRJ-TRJ-TRJ-TRJ
                          Input orientation:                          
 ---------------------------------------------------------------------
 Center     Atomic      Atomic             Coordinates (Angstroms)
 Number     Number       Type             X           Y           Z
 ---------------------------------------------------------------------
      1          6           0        0.036967    0.016008    0.396834
      2          9           0        1.135258   -0.563136   -0.172737
      3          9           0       -0.101313    1.266165   -0.098861
      4          9           0       -1.066898   -0.712609   -0.064022
      5          1           0        0.181036   -0.010000    1.601702
 ---------------------------------------------------------------------
                    Distance matrix (angstroms):
                    1          2          3          4          5
     1  C    0.000000
     2  F    1.366038   0.000000
     3  F    1.351935   2.209277   0.000000
     4  F    1.400639   2.209898   2.202070   0.000000
     5  H    1.213730   2.089290   2.144815   2.196734   0.000000
 Symmetry turned off by external request.
 Stoichiometry    CHF3
 Framework group  C1[X(CHF3)]
 Deg. of freedom     9
 Full point group                 C1      NOp   1
 Rotational constants (GHZ):           9.8515175           9.7713832           5.4595267
 Standard basis: 6-31G(d) (6D, 7F)
    62 basis functions,   116 primitive gaussians,    62 cartesian basis functions
    17 alpha electrons       17 beta electrons
       nuclear repulsion energy       130.0038512321 Hartrees.
 NAtoms=    5 NActive=    5 NUniq=    5 SFac= 1.00D+00 NAtFMM=   60 NAOKFM=F Big=F
 Integral buffers will be    131072 words long.
 Raffenetti 2 integral format.
 Two-electron integral symmetry is turned off.
 One-electron integrals computed using PRISM.
 NBasis=    62 RedAO= T EigKep=  2.85D-03  NBF=    62
 NBsUse=    62 1.00D-06 EigRej= -1.00D+00 NBFU=    62
 Keep R1 ints in memory in canonical form, NReq=8989199.
 Requested convergence on RMS density matrix=1.00D-08 within 128 cycles.
 Requested convergence on MAX density matrix=1.00D-06.
 Requested convergence on             energy=1.00D-06.
 No special actions if energy rises.
 SCF Done:  E(RB3LYP) =  -338.212306516     A.U. after    1 cycles
            NFock=  1  Conv=0.20D+01     -V/T= 2.0081
 Calling FoFJK, ICntrl=      2127 FMM=F ISym2X=0 I1Cent= 0 IOpClX= 0 NMat=1 NMatS=1 NMatT=0.
 -------------------------------------------------------------------
 Center     Atomic                   Forces (Hartrees/Bohr)
 Number     Number              X              Y              Z
 -------------------------------------------------------------------
      1        6           0.001237693   -0.001489313    0.013308681
      2        9          -0.007870926    0.003409311    0.004682043
      3        9           0.003937025   -0.010568867    0.008335820
      4        9           0.015579413    0.007499755    0.023482086
      5        1          -0.012883205    0.001149114   -0.049808632
 -------------------------------------------------------------------
 Cartesian Forces:  Max     0.049808632 RMS     0.016271907
 TRJ-TRJ-TRJ-TRJ-TRJ-TRJ-TRJ-TRJ-TRJ-TRJ-TRJ-TRJ-TRJ-TRJ-TRJ-TRJ-TRJ-TRJ

 ADMP step     11
 Frobenius norm of [F,P] =     6.549136D-02
 Current gradient on entry to l121
 I=    1 X=  -1.237693324126D-03 Y=   1.489312626355D-03 Z=  -1.330868141548D-02
 I=    2 X=   7.870925795775D-03 Y=  -3.409311026861D-03 Z=  -4.682043330357D-03
 I=    3 X=  -3.937024652422D-03 Y=   1.056886657968D-02 Z=  -8.335820478899D-03
 I=    4 X=  -1.557941300279D-02 Y=  -7.499754569988D-03 Z=  -2.348208639005D-02
 I=    5 X=   1.288320518359D-02 Y=  -1.149113609209D-03 Z=   4.980863161477D-02

 Summary information for step     11
 Time (fs)     1.100000
 EKinC      =      0.0823254; EKinPA =      0.0023995; EKinPB =      0.0023995
 EKin       =      0.0871243; EPot   =   -338.2123065; ETot   =   -338.1251822
 ETot-EKinP =   -338.1299811
 Adiabaticity Index =   -3.3391D-04
 Integrand for the Velocity-Velocity Auto-Correlation  Function =   1.697214708654D-01
 Angular momentum
   JX = -0.1617354165D-14  JY =  0.1052316807D-13  JZ = -0.3342759178D-13
 Jtot =  0.3508214350D-13 H-BAR;  J (Quantum Number) =  0.0000000000D+00
 Total energy  -3.381251822D+02  Delta-E  -4.432963D-05 A.U.
 Total angular momentum   3.508214D-14  Delta-A   3.920754D-15 h-bar
 Tr(PA)-NA =  1.066D-14
 Tr(PA**2-PA) = -3.629D-11
 Tr[(PA**2-PA)**2] =  3.221D-13
 Cartesian coordinates:
 I=    1 X=   6.985843857137D-02 Y=   3.025016411173D-02 Z=   7.499071805396D-01
 I=    2 X=   2.145326080297D+00 Y=  -1.064172651886D+00 Z=  -3.264248136200D-01
 I=    3 X=  -1.914544393665D-01 Y=   2.392704394964D+00 Z=  -1.868206210186D-01
 I=    4 X=  -2.016144638475D+00 Y=  -1.346636294614D+00 Z=  -1.209841663341D-01
 I=    5 X=   3.421092386181D-01 Y=  -1.889653251922D-02 Z=   3.026778889093D+00
 MW Cartesian velocity:
 I=    1 X=   9.677208887376D+13 Y=   1.037559182845D+14 Z=   1.180146164503D+14
 I=    2 X=   7.579597264278D+13 Y=  -8.126656369297D+13 Z=  -1.909992131804D+13
 I=    3 X=  -6.216861434056D+13 Y=   6.281504396631D+13 Z=  -2.830703147305D+13
 I=    4 X=  -1.287944594284D+14 Y=  -6.281712590543D+13 Z=  -9.362814964094D+13
 I=    5 X=   1.661036942513D+14 Y=  -5.173912399619D+12 Z=   2.051163453673D+14
 TRJ-TRJ-TRJ-TRJ-TRJ-TRJ-TRJ-TRJ-TRJ-TRJ-TRJ-TRJ-TRJ-TRJ-TRJ-TRJ-TRJ-TRJ
                          Input orientation:                          
 ---------------------------------------------------------------------
 Center     Atomic      Atomic             Coordinates (Angstroms)
 Number     Number       Type             X           Y           Z
 ---------------------------------------------------------------------
      1          6           0        0.038446    0.017592    0.398639
      2          9           0        1.136177   -0.564122   -0.172968
      3          9           0       -0.102068    1.266926   -0.099203
      4          9           0       -1.068459   -0.713371   -0.065156
      5          1           0        0.189754   -0.010276    1.612393
 ---------------------------------------------------------------------
                    Distance matrix (angstroms):
                    1          2          3          4          5
     1  C    0.000000
     2  F    1.367530   0.000000
     3  F    1.352193   2.211657   0.000000
     4  F    1.405223   2.212311   2.203780   0.000000
     5  H    1.223465   2.095226   2.155450   2.211699   0.000000
 Symmetry turned off by external request.
 Stoichiometry    CHF3
 Framework group  C1[X(CHF3)]
 Deg. of freedom     9
 Full point group                 C1      NOp   1
 Rotational constants (GHZ):           9.8257393           9.7387614           5.4485671
 Standard basis: 6-31G(d) (6D, 7F)
    62 basis functions,   116 primitive gaussians,    62 cartesian basis functions
    17 alpha electrons       17 beta electrons
       nuclear repulsion energy       129.8003833520 Hartrees.
 NAtoms=    5 NActive=    5 NUniq=    5 SFac= 1.00D+00 NAtFMM=   60 NAOKFM=F Big=F
 Integral buffers will be    131072 words long.
 Raffenetti 2 integral format.
 Two-electron integral symmetry is turned off.
 One-electron integrals computed using PRISM.
 NBasis=    62 RedAO= T EigKep=  2.85D-03  NBF=    62
 NBsUse=    62 1.00D-06 EigRej= -1.00D+00 NBFU=    62
 Keep R1 ints in memory in canonical form, NReq=8989199.
 Requested convergence on RMS density matrix=1.00D-08 within 128 cycles.
 Requested convergence on MAX density matrix=1.00D-06.
 Requested convergence on             energy=1.00D-06.
 No special actions if energy rises.
 SCF Done:  E(RB3LYP) =  -338.210753271     A.U. after    1 cycles
            NFock=  1  Conv=0.20D+01     -V/T= 2.0082
 Calling FoFJK, ICntrl=      2127 FMM=F ISym2X=0 I1Cent= 0 IOpClX= 0 NMat=1 NMatS=1 NMatT=0.
 -------------------------------------------------------------------
 Center     Atomic                   Forces (Hartrees/Bohr)
 Number     Number              X              Y              Z
 -------------------------------------------------------------------
      1        6          -0.015186781   -0.018305548   -0.014656270
      2        9          -0.014941545    0.017196222    0.015195429
      3        9           0.011922480   -0.020254724    0.020030165
      4        9           0.032060714    0.019884755    0.035848421
      5        1          -0.013854867    0.001479294   -0.056417746
 -------------------------------------------------------------------
 Cartesian Forces:  Max     0.056417746 RMS     0.023901904
 TRJ-TRJ-TRJ-TRJ-TRJ-TRJ-TRJ-TRJ-TRJ-TRJ-TRJ-TRJ-TRJ-TRJ-TRJ-TRJ-TRJ-TRJ

 ADMP step     12
[...]
 I=    1 X=   9.569903876018D+13 Y=   9.321650786678D+13 Z=   1.177454336986D+14
 I=    2 X=   6.800717105537D+13 Y=  -7.562877705342D+13 Z=  -1.381691896502D+13
 I=    3 X=  -6.043693279824D+13 Y=   5.499977704255D+13 Z=  -2.212211233228D+13
 I=    4 X=  -1.157974403034D+14 Y=  -5.369474816328D+13 Z=  -8.384858117720D+13
 I=    5 X=   1.396750025026D+14 Y=   1.040575193311D+12 Z=   1.137936574638D+14
 TRJ-TRJ-TRJ-TRJ-TRJ-TRJ-TRJ-TRJ-TRJ-TRJ-TRJ-TRJ-TRJ-TRJ-TRJ-TRJ-TRJ-TRJ
                          Input orientation:                          
 ---------------------------------------------------------------------
 Center     Atomic      Atomic             Coordinates (Angstroms)
 Number     Number       Type             X           Y           Z
 ---------------------------------------------------------------------
      1          6           0        0.060419    0.040224    0.425391
      2          9           0        1.149209   -0.578299   -0.175858
      3          9           0       -0.113136    1.277474   -0.103649
      4          9           0       -1.090686   -0.723958   -0.081186
      5          1           0        0.310117   -0.011751    1.734340
 ---------------------------------------------------------------------
                    Distance matrix (angstroms):
                    1          2          3          4          5
     1  C    0.000000
     2  F    1.389077   0.000000
     3  F    1.356758   2.245578   0.000000
     4  F    1.471611   2.246622   2.227519   0.000000
     5  H    1.333565   2.161922   2.284611   2.401171   0.000000
 Symmetry turned off by external request.
 Stoichiometry    CHF3
 Framework group  C1[X(CHF3)]
 Deg. of freedom     9
 Full point group                 C1      NOp   1
 Rotational constants (GHZ):           9.4852840           9.3021729           5.2946918
 Standard basis: 6-31G(d) (6D, 7F)
    62 basis functions,   116 primitive gaussians,    62 cartesian basis functions
    17 alpha electrons       17 beta electrons
       nuclear repulsion energy       127.1126430800 Hartrees.
 NAtoms=    5 NActive=    5 NUniq=    5 SFac= 1.00D+00 NAtFMM=   60 NAOKFM=F Big=F
 Integral buffers will be    131072 words long.
 Raffenetti 2 integral format.
 Two-electron integral symmetry is turned off.
 One-electron integrals computed using PRISM.
 NBasis=    62 RedAO= T EigKep=  2.90D-03  NBF=    62
 NBsUse=    62 1.00D-06 EigRej= -1.00D+00 NBFU=    62
 Keep R1 ints in memory in canonical form, NReq=8989199.
 Requested convergence on RMS density matrix=1.00D-08 within 128 cycles.
 Requested convergence on MAX density matrix=1.00D-06.
 Requested convergence on             energy=1.00D-06.
 No special actions if energy rises.
 SCF Done:  E(RB3LYP) =  -338.182146912     A.U. after    1 cycles
            NFock=  1  Conv=0.20D+01     -V/T= 2.0084
 Calling FoFJK, ICntrl=      2127 FMM=F ISym2X=0 I1Cent= 0 IOpClX= 0 NMat=1 NMatS=1 NMatT=0.
 -------------------------------------------------------------------
 Center     Atomic                   Forces (Hartrees/Bohr)
 Number     Number              X              Y              Z
 -------------------------------------------------------------------
      1        6          -0.003700244   -0.032630851   -0.019806596
      2        9          -0.031272588    0.024980417    0.027393152
      3        9           0.013591170   -0.031794639    0.031616121
      4        9           0.049939098    0.033565270    0.045843212
      5        1          -0.028557436    0.005879803   -0.085045889
 -------------------------------------------------------------------
 Cartesian Forces:  Max     0.085045889 RMS     0.036353255
 TRJ-TRJ-TRJ-TRJ-TRJ-TRJ-TRJ-TRJ-TRJ-TRJ-TRJ-TRJ-TRJ-TRJ-TRJ-TRJ-TRJ-TRJ

 ADMP step     27
 Frobenius norm of [F,P] =     8.440352D-02
 Current gradient on entry to l121
 I=    1 X=   3.700244377831D-03 Y=   3.263085093212D-02 Z=   1.980659636118D-02
 I=    2 X=   3.127258846413D-02 Y=  -2.498041674659D-02 Z=  -2.739315172582D-02
 I=    3 X=  -1.359117041048D-02 Y=   3.179463930838D-02 Z=  -3.161612092927D-02
 I=    4 X=  -4.993909798071D-02 Y=  -3.356527006883D-02 Z=  -4.584321230630D-02
 I=    5 X=   2.855743554922D-02 Y=  -5.879803425129D-03 Z=   8.504588860023D-02

 Summary information for step     27
 Time (fs)     2.700000
 EKinC      =      0.0542435; EKinPA =      0.0012363; EKinPB =      0.0012363
 EKin       =      0.0567161; EPot   =   -338.1821469; ETot   =   -338.1254308
 ETot-EKinP =   -338.1279034
 Adiabaticity Index =    7.1393D-04
 Integrand for the Velocity-Velocity Auto-Correlation  Function =   1.324280946836D-01
 Angular momentum
   JX = -0.2348923450D-13  JY =  0.3118111358D-13  JZ = -0.1333566164D-13
 Jtot =  0.4125343443D-13 H-BAR;  J (Quantum Number) =  0.0000000000D+00
 Total energy  -3.381254308D+02  Delta-E   6.312010D-06 A.U.
 Total angular momentum   4.125343D-14  Delta-A   1.119753D-14 h-bar
 Tr(PA)-NA =  3.553D-15
 Tr(PA**2-PA) =  6.088D-11
 Tr[(PA**2-PA)**2] =  4.906D-13
 Cartesian coordinates:
 I=    1 X=   1.141751312716D-01 Y=   7.601219962263D-02 Z=   8.038726510000D-01
 I=    2 X=   2.171689373163D+00 Y=  -1.092826795270D+00 Z=  -3.323242513253D-01
 I=    3 X=  -2.137952267255D-01 Y=   2.414075960088D+00 Z=  -1.958690369844D-01
 I=    4 X=  -2.061098756561D+00 Y=  -1.368082887946D+00 Z=  -1.534189689366D-01
 I=    5 X=   5.860354758359D-01 Y=  -2.220666977599D-02 Z=   3.277426725911D+00
 MW Cartesian velocity:
 I=    1 X=   9.563465820166D+13 Y=   9.233308928049D+13 Z=   1.172723380379D+14
 I=    2 X=   6.732299819942D+13 Y=  -7.509565146664D+13 Z=  -1.325714773122D+13
 I=    3 X=  -6.021422734822D+13 Y=   5.432694544593D+13 Z=  -2.147908988124D+13
 I=    4 X=  -1.147016780290D+14 Y=  -5.296949419042D+13 Z=  -8.290541777314D+13
 I=    5 X=   1.371431986737D+14 Y=   1.546613771493D+12 Z=   1.061089000459D+14
 TRJ-TRJ-TRJ-TRJ-TRJ-TRJ-TRJ-TRJ-TRJ-TRJ-TRJ-TRJ-TRJ-TRJ-TRJ-TRJ-TRJ-TRJ
                          Input orientation:                          
 ---------------------------------------------------------------------
 Center     Atomic      Atomic             Coordinates (Angstroms)
 Number     Number       Type             X           Y           Z
 ---------------------------------------------------------------------
      1          6           0        0.061879    0.041628    0.427178
      2          9           0        1.150022   -0.579207   -0.176016
      3          9           0       -0.113865    1.278129   -0.103906
      4          9           0       -1.092072   -0.724597   -0.082186
      5          1           0        0.317276   -0.011656    1.739723
 ---------------------------------------------------------------------
                    Distance matrix (angstroms):
                    1          2          3          4          5
     1  C    0.000000
     2  F    1.390444   0.000000
     3  F    1.357156   2.247734   0.000000
     4  F    1.475858   2.248762   2.228963   0.000000
     5  H    1.338223   2.164633   2.290938   2.411204   0.000000
 Symmetry turned off by external request.
 Stoichiometry    CHF3
 Framework group  C1[X(CHF3)]
 Deg. of freedom     9
 Full point group                 C1      NOp   1
 Rotational constants (GHZ):           9.4657728           9.2765927           5.2851617
 Standard basis: 6-31G(d) (6D, 7F)
    62 basis functions,   116 primitive gaussians,    62 cartesian basis functions
    17 alpha electrons       17 beta electrons
       nuclear repulsion energy       126.9563712483 Hartrees.
 NAtoms=    5 NActive=    5 NUniq=    5 SFac= 1.00D+00 NAtFMM=   60 NAOKFM=F Big=F
 Integral buffers will be    131072 words long.
 Raffenetti 2 integral format.
 Two-electron integral symmetry is turned off.
 One-electron integrals computed using PRISM.
 NBasis=    62 RedAO= T EigKep=  2.90D-03  NBF=    62
 NBsUse=    62 1.00D-06 EigRej= -1.00D+00 NBFU=    62
 Keep R1 ints in memory in canonical form, NReq=8989199.
 Requested convergence on RMS density matrix=1.00D-08 within 128 cycles.
 Requested convergence on MAX density matrix=1.00D-06.
 Requested convergence on             energy=1.00D-06.
 No special actions if energy rises.
 SCF Done:  E(RB3LYP) =  -338.180376342     A.U. after    1 cycles
            NFock=  1  Conv=0.20D+01     -V/T= 2.0083
 Calling FoFJK, ICntrl=      2127 FMM=F ISym2X=0 I1Cent= 0 IOpClX= 0 NMat=1 NMatS=1 NMatT=0.
 -------------------------------------------------------------------
 Center     Atomic                   Forces (Hartrees/Bohr)
 Number     Number              X              Y              Z
 -------------------------------------------------------------------
      1        6          -0.008556398   -0.035772631   -0.019382941
      2        9          -0.028707615    0.026985522    0.027132596
      3        9           0.017061146   -0.030964986    0.033313132
      4        9           0.051262478    0.033379102    0.047819582
      5        1          -0.031059611    0.006372993   -0.088882369
 -------------------------------------------------------------------
 Cartesian Forces:  Max     0.088882369 RMS     0.037692529
 TRJ-TRJ-TRJ-TRJ-TRJ-TRJ-TRJ-TRJ-TRJ-TRJ-TRJ-TRJ-TRJ-TRJ-TRJ-TRJ-TRJ-TRJ

 ADMP step     28
 Frobenius norm of [F,P] =     8.986009D-02
 Current gradient on entry to l121
 I=    1 X=   8.556398110121D-03 Y=   3.577263141493D-02 Z=   1.938294076971D-02
 I=    2 X=   2.870761532658D-02 Y=  -2.698552232386D-02 Z=  -2.713259583244D-02
 I=    3 X=  -1.706114620949D-02 Y=   3.096498572751D-02 Z=  -3.331313176937D-02
 I=    4 X=  -5.126247781132D-02 Y=  -3.337910161098D-02 Z=  -4.781958192350D-02
 I=    5 X=   3.105961058408D-02 Y=  -6.372993207592D-03 Z=   8.888236875564D-02

 Summary information for step     28
 Time (fs)     2.800000
 EKinC      =      0.0523563; EKinPA =      0.0013019; EKinPB =      0.0013019
 EKin       =      0.0549601; EPot   =   -338.1803763; ETot   =   -338.1254162
 ETot-EKinP =   -338.1280200
 Adiabaticity Index =    8.9139D-04
 Integrand for the Velocity-Velocity Auto-Correlation  Function =   1.292289870677D-01
 Angular momentum
   JX = -0.2078121782D-13  JY =  0.3025352377D-13  JZ = -0.8319784563D-15
 Jtot =  0.3671276212D-13 H-BAR;  J (Quantum Number) =  0.0000000000D+00
 Total energy  -3.381254162D+02  Delta-E   1.457985D-05 A.U.
 Total angular momentum   3.671276D-14  Delta-A  -4.540672D-15 h-bar
 Tr(PA)-NA =  7.105D-15
 Tr(PA**2-PA) =  6.535D-11
 Tr[(PA**2-PA)**2] =  5.326D-13
 Cartesian coordinates:
 I=    1 X=   1.169344153085D-01 Y=   7.866487185540D-02 Z=   8.072502781018D-01
 I=    2 X=   2.173226293800D+00 Y=  -1.094543273314D+00 Z=  -3.326217512185D-01
 I=    3 X=  -2.151736199571D-01 Y=   2.415314505346D+00 Z=  -1.963539341126D-01
 I=    4 X=  -2.063717869923D+00 Y=  -1.369290059200D+00 Z=  -1.553096825222D-01
 I=    5 X=   5.995653994924D-01 Y=  -2.202586528300D-02 Z=   3.287600424368D+00
 MW Cartesian velocity:
 I=    1 X=   9.546900931389D+13 Y=   9.140725347374D+13 Z=   1.167420854684D+14
 I=    2 X=   6.668043447465D+13 Y=  -7.451928898180D+13 Z=  -1.268441889981D+13
 I=    3 X=  -5.991000417867D+13 Y=   5.364969144031D+13 Z=  -2.077723383611D+13
 I=    4 X=  -1.136072929011D+14 Y=  -5.226697351132D+13 Z=  -8.188489611569D+13
 I=    5 X=   1.344322259066D+14 Y=   2.129197650417D+12 Z=   9.797379847462D+13
 TRJ-TRJ-TRJ-TRJ-TRJ-TRJ-TRJ-TRJ-TRJ-TRJ-TRJ-TRJ-TRJ-TRJ-TRJ-TRJ-TRJ-TRJ
                          Input orientation:                          
 ---------------------------------------------------------------------
 Center     Atomic      Atomic             Coordinates (Angstroms)
 Number     Number       Type             X           Y           Z
 ---------------------------------------------------------------------
      1          6           0        0.063336    0.043017    0.428958
      2          9           0        1.150828   -0.580108   -0.176166
      3          9           0       -0.114590    1.278777   -0.104154
      4          9           0       -1.093445   -0.725227   -0.083174
      5          1           0        0.324289   -0.011527    1.744668
 ---------------------------------------------------------------------
                    Distance matrix (angstroms):
                    1          2          3          4          5
     1  C    0.000000
     2  F    1.391797   0.000000
     3  F    1.357560   2.249872   0.000000
     4  F    1.480074   2.250881   2.230388   0.000000
     5  H    1.342448   2.167039   2.296876   2.420815   0.000000
 Symmetry turned off by external request.
 Stoichiometry    CHF3
 Framework group  C1[X(CHF3)]
 Deg. of freedom     9
 Full point group                 C1      NOp   1
 Rotational constants (GHZ):           9.4467506           9.2515550           5.2757374
 Standard basis: 6-31G(d) (6D, 7F)
    62 basis functions,   116 primitive gaussians,    62 cartesian basis functions
    17 alpha electrons       17 beta electrons
       nuclear repulsion energy       126.8035015619 Hartrees.
 NAtoms=    5 NActive=    5 NUniq=    5 SFac= 1.00D+00 NAtFMM=   60 NAOKFM=F Big=F
 Integral buffers will be    131072 words long.
 Raffenetti 2 integral format.
 Two-electron integral symmetry is turned off.
 One-electron integrals computed using PRISM.
 NBasis=    62 RedAO= T EigKep=  2.90D-03  NBF=    62
 NBsUse=    62 1.00D-06 EigRej= -1.00D+00 NBFU=    62
 Keep R1 ints in memory in canonical form, NReq=8989199.
 Requested convergence on RMS density matrix=1.00D-08 within 128 cycles.
 Requested convergence on MAX density matrix=1.00D-06.
 Requested convergence on             energy=1.00D-06.
 No special actions if energy rises.
 SCF Done:  E(RB3LYP) =  -338.178715192     A.U. after    1 cycles
            NFock=  1  Conv=0.20D+01     -V/T= 2.0083
 Calling FoFJK, ICntrl=      2127 FMM=F ISym2X=0 I1Cent= 0 IOpClX= 0 NMat=1 NMatS=1 NMatT=0.
 -------------------------------------------------------------------
 Center     Atomic                   Forces (Hartrees/Bohr)
 Number     Number              X              Y              Z
 -------------------------------------------------------------------
      1        6          -0.013616972   -0.040862500   -0.014177752
      2        9          -0.026901869    0.028555380    0.024738397
      3        9           0.018839342   -0.029548682    0.032333705
      4        9           0.054691025    0.034965324    0.047643849
      5        1          -0.033011525    0.006890478   -0.090538198
 -------------------------------------------------------------------
 Cartesian Forces:  Max     0.090538198 RMS     0.038556297
 TRJ-TRJ-TRJ-TRJ-TRJ-TRJ-TRJ-TRJ-TRJ-TRJ-TRJ-TRJ-TRJ-TRJ-TRJ-TRJ-TRJ-TRJ

 ADMP step     29
 Frobenius norm of [F,P] =     9.195950D-02
 Current gradient on entry to l121
 I=    1 X=   1.361697240935D-02 Y=   4.086249983651D-02 Z=   1.417775213530D-02
 I=    2 X=   2.690186937502D-02 Y=  -2.855537963757D-02 Z=  -2.473839654555D-02
 I=    3 X=  -1.883934235130D-02 Y=   2.954868169341D-02 Z=  -3.233370467044D-02
 I=    4 X=  -5.469102454946D-02 Y=  -3.496532418951D-02 Z=  -4.764384912957D-02
 I=    5 X=   3.301152511644D-02 Y=  -6.890477702869D-03 Z=   9.053819821027D-02

 Summary information for step     29
 Time (fs)     2.900000
 EKinC      =      0.0504846; EKinPA =      0.0014159; EKinPB =      0.0014159
 EKin       =      0.0533164; EPot   =   -338.1787152; ETot   =   -338.1253988
 ETot-EKinP =   -338.1282306
 Adiabaticity Index =    1.1478D-03
 Integrand for the Velocity-Velocity Auto-Correlation  Function =   1.259089578693D-01
 Angular momentum
   JX = -0.2548040111D-13  JY =  0.3069143398D-13  JZ = -0.1830478601D-13
 Jtot =  0.4388940819D-13 H-BAR;  J (Quantum Number) =  0.0000000000D+00
 Total energy  -3.381253988D+02  Delta-E   1.748057D-05 A.U.
 Total angular momentum   4.388941D-14  Delta-A   7.176646D-15 h-bar
 Tr(PA)-NA =  3.553D-15
 Tr(PA**2-PA) =  5.005D-11
 Tr[(PA**2-PA)**2] =  4.146D-13
 Cartesian coordinates:
 I=    1 X=   1.196870370942D-01 Y=   8.128959986253D-02 Z=   8.106127584471D-01
 I=    2 X=   2.174749009893D+00 Y=  -1.096246118425D+00 Z=  -3.329062768365D-01
 I=    3 X=  -2.165442017541D-01 Y=   2.416537680197D+00 Z=  -1.968224019150D-01
 I=    4 X=  -2.066311635704D+00 Y=  -1.370481161940D+00 Z=  -1.571762635275D-01
 I=    5 X=   6.128173406632D-01 Y=  -2.178248663627D-02 Z=   3.296945267761D+00
 MW Cartesian velocity:
 I=    1 X=   9.517044022754D+13 Y=   9.037079944981D+13 Z=   1.162875767358D+14
 I=    2 X=   6.607550380422D+13 Y=  -7.391409874726D+13 Z=  -1.214877631888D+13
 I=    3 X=  -5.954975447885D+13 Y=   5.299309295745D+13 Z=  -2.007700083218D+13
 I=    4 X=  -1.124706277901D+14 Y=  -5.154846430709D+13 Z=  -8.082357951880D+13
 I=    5 X=   1.315896939997D+14 Y=   2.809220826711D+12 Z=   8.956827776808D+13
 TRJ-TRJ-TRJ-TRJ-TRJ-TRJ-TRJ-TRJ-TRJ-TRJ-TRJ-TRJ-TRJ-TRJ-TRJ-TRJ-TRJ-TRJ
                          Input orientation:                          
 ---------------------------------------------------------------------
 Center     Atomic      Atomic             Coordinates (Angstroms)
 Number     Number       Type             X           Y           Z
 ---------------------------------------------------------------------
      1          6           0        0.064787    0.044389    0.430731
      2          9           0        1.151626   -0.581002   -0.176311
      3          9           0       -0.115311    1.279416   -0.104394
      4          9           0       -1.094803   -0.725849   -0.084149
      5          1           0        0.331149   -0.011359    1.749166
 ---------------------------------------------------------------------
                    Distance matrix (angstroms):
                    1          2          3          4          5
     1  C    0.000000
     2  F    1.393138   0.000000
     3  F    1.357971   2.251990   0.000000
     4  F    1.484256   2.252980   2.231794   0.000000
     5  H    1.346227   2.169133   2.302414   2.429995   0.000000
 Symmetry turned off by external request.
 Stoichiometry    CHF3
 Framework group  C1[X(CHF3)]
 Deg. of freedom     9
 Full point group                 C1      NOp   1
 Rotational constants (GHZ):           9.4282187           9.2270597           5.2664205
 Standard basis: 6-31G(d) (6D, 7F)
    62 basis functions,   116 primitive gaussians,    62 cartesian basis functions
    17 alpha electrons       17 beta electrons
       nuclear repulsion energy       126.6540089866 Hartrees.
 NAtoms=    5 NActive=    5 NUniq=    5 SFac= 1.00D+00 NAtFMM=   60 NAOKFM=F Big=F
 Integral buffers will be    131072 words long.
 Raffenetti 2 integral format.
 Two-electron integral symmetry is turned off.
 One-electron integrals computed using PRISM.
 NBasis=    62 RedAO= T EigKep=  2.91D-03  NBF=    62
 NBsUse=    62 1.00D-06 EigRej= -1.00D+00 NBFU=    62
 Keep R1 ints in memory in canonical form, NReq=8989199.
 Requested convergence on RMS density matrix=1.00D-08 within 128 cycles.
 Requested convergence on MAX density matrix=1.00D-06.
 Requested convergence on             energy=1.00D-06.
 No special actions if energy rises.
 SCF Done:  E(RB3LYP) =  -338.177160952     A.U. after    1 cycles
            NFock=  1  Conv=0.20D+01     -V/T= 2.0083
 Calling FoFJK, ICntrl=      2127 FMM=F ISym2X=0 I1Cent= 0 IOpClX= 0 NMat=1 NMatS=1 NMatT=0.
 -------------------------------------------------------------------
 Center     Atomic                   Forces (Hartrees/Bohr)
 Number     Number              X              Y              Z
 -------------------------------------------------------------------
      1        6          -0.016715994   -0.046029910   -0.006135450
      2        9          -0.026840241    0.029652955    0.021285319
      3        9           0.018687181   -0.028652206    0.029412894
      4        9           0.059159956    0.037675171    0.045604819
      5        1          -0.034290902    0.007353990   -0.090167582
 -------------------------------------------------------------------
 Cartesian Forces:  Max     0.090167582 RMS     0.039058177
